# Time	Position	Velocity	Total Energy
50.0000	-0.5247	-1.9299	2.0000
49.9990	-0.5267	-1.9294	2.0000
49.9980	-0.5286	-1.9289	2.0000
49.9970	-0.5305	-1.9284	2.0000
49.9960	-0.5325	-1.9278	2.0000
49.9950	-0.5344	-1.9273	2.0000
49.9940	-0.5363	-1.9267	2.0000
49.9930	-0.5382	-1.9262	2.0000
49.9920	-0.5402	-1.9257	2.0000
49.9910	-0.5421	-1.9251	2.0000
49.9900	-0.5440	-1.9246	2.0000
49.9890	-0.5459	-1.9240	2.0000
49.9880	-0.5479	-1.9235	2.0000
49.9870	-0.5498	-1.9229	2.0000
49.9860	-0.5517	-1.9224	2.0000
49.9850	-0.5536	-1.9218	2.0000
49.9840	-0.5556	-1.9213	2.0000
49.9830	-0.5575	-1.9207	2.0000
49.9820	-0.5594	-1.9202	2.0000
49.9810	-0.5613	-1.9196	2.0000
49.9800	-0.5632	-1.9191	2.0000
49.9790	-0.5652	-1.9185	2.0000
49.9780	-0.5671	-1.9179	2.0000
49.9770	-0.5690	-1.9174	2.0000
49.9760	-0.5709	-1.9168	2.0000
49.9750	-0.5728	-1.9162	2.0000
49.9740	-0.5747	-1.9156	2.0000
49.9730	-0.5767	-1.9151	2.0000
49.9720	-0.5786	-1.9145	2.0000
49.9710	-0.5805	-1.9139	2.0000
49.9700	-0.5824	-1.9133	2.0000
49.9690	-0.5843	-1.9127	2.0000
49.9680	-0.5862	-1.9122	2.0000
49.9670	-0.5881	-1.9116	2.0000
49.9660	-0.5900	-1.9110	2.0000
49.9650	-0.5920	-1.9104	2.0000
49.9640	-0.5939	-1.9098	2.0000
49.9630	-0.5958	-1.9092	2.0000
49.9620	-0.5977	-1.9086	2.0000
49.9610	-0.5996	-1.9080	2.0000
49.9600	-0.6015	-1.9074	2.0000
49.9590	-0.6034	-1.9068	2.0000
49.9580	-0.6053	-1.9062	2.0000
49.9570	-0.6072	-1.9056	2.0000
49.9560	-0.6091	-1.9050	2.0000
49.9550	-0.6110	-1.9044	2.0000
49.9540	-0.6129	-1.9038	2.0000
49.9530	-0.6148	-1.9031	2.0000
49.9520	-0.6167	-1.9025	2.0000
49.9510	-0.6186	-1.9019	2.0000
49.9500	-0.6205	-1.9013	2.0000
49.9490	-0.6224	-1.9007	2.0000
49.9480	-0.6243	-1.9000	2.0000
49.9470	-0.6262	-1.8994	2.0000
49.9460	-0.6281	-1.8988	2.0000
49.9450	-0.6300	-1.8982	2.0000
49.9440	-0.6319	-1.8975	2.0000
49.9430	-0.6338	-1.8969	2.0000
49.9420	-0.6357	-1.8963	2.0000
49.9410	-0.6376	-1.8956	2.0000
49.9400	-0.6395	-1.8950	2.0000
49.9390	-0.6414	-1.8944	2.0000
49.9380	-0.6433	-1.8937	2.0000
49.9370	-0.6452	-1.8931	2.0000
49.9360	-0.6471	-1.8924	2.0000
49.9350	-0.6490	-1.8918	2.0000
49.9340	-0.6509	-1.8911	2.0000
49.9330	-0.6528	-1.8905	2.0000
49.9320	-0.6547	-1.8898	2.0000
49.9310	-0.6566	-1.8892	2.0000
49.9300	-0.6584	-1.8885	2.0000
49.9290	-0.6603	-1.8878	2.0000
49.9280	-0.6622	-1.8872	2.0000
49.9270	-0.6641	-1.8865	2.0000
49.9260	-0.6660	-1.8859	2.0000
49.9250	-0.6679	-1.8852	2.0000
49.9240	-0.6698	-1.8845	2.0000
49.9230	-0.6716	-1.8838	2.0000
49.9220	-0.6735	-1.8832	2.0000
49.9210	-0.6754	-1.8825	2.0000
49.9200	-0.6773	-1.8818	2.0000
49.9190	-0.6792	-1.8811	2.0000
49.9180	-0.6811	-1.8805	2.0000
49.9170	-0.6829	-1.8798	2.0000
49.9160	-0.6848	-1.8791	2.0000
49.9150	-0.6867	-1.8784	2.0000
49.9140	-0.6886	-1.8777	2.0000
49.9130	-0.6905	-1.8770	2.0000
49.9120	-0.6923	-1.8763	2.0000
49.9110	-0.6942	-1.8757	2.0000
49.9100	-0.6961	-1.8750	2.0000
49.9090	-0.6980	-1.8743	2.0000
49.9080	-0.6998	-1.8736	2.0000
49.9070	-0.7017	-1.8729	2.0000
49.9060	-0.7036	-1.8722	2.0000
49.9050	-0.7054	-1.8715	2.0000
49.9040	-0.7073	-1.8707	2.0000
49.9030	-0.7092	-1.8700	2.0000
49.9020	-0.7111	-1.8693	2.0000
49.9010	-0.7129	-1.8686	2.0000
49.9000	-0.7148	-1.8679	2.0000
49.8990	-0.7167	-1.8672	2.0000
49.8980	-0.7185	-1.8665	2.0000
49.8970	-0.7204	-1.8658	2.0000
49.8960	-0.7223	-1.8650	2.0000
49.8950	-0.7241	-1.8643	2.0000
49.8940	-0.7260	-1.8636	2.0000
49.8930	-0.7279	-1.8629	2.0000
49.8920	-0.7297	-1.8621	2.0000
49.8910	-0.7316	-1.8614	2.0000
49.8900	-0.7334	-1.8607	2.0000
49.8890	-0.7353	-1.8599	2.0000
49.8880	-0.7372	-1.8592	2.0000
49.8870	-0.7390	-1.8585	2.0000
49.8860	-0.7409	-1.8577	2.0000
49.8850	-0.7427	-1.8570	2.0000
49.8840	-0.7446	-1.8562	2.0000
49.8830	-0.7464	-1.8555	2.0000
49.8820	-0.7483	-1.8547	2.0000
49.8810	-0.7502	-1.8540	2.0000
49.8800	-0.7520	-1.8532	2.0000
49.8790	-0.7539	-1.8525	2.0000
49.8780	-0.7557	-1.8517	2.0000
49.8770	-0.7576	-1.8510	2.0000
49.8760	-0.7594	-1.8502	2.0000
49.8750	-0.7613	-1.8495	2.0000
49.8740	-0.7631	-1.8487	2.0000
49.8730	-0.7650	-1.8479	2.0000
49.8720	-0.7668	-1.8472	2.0000
49.8710	-0.7687	-1.8464	2.0000
49.8700	-0.7705	-1.8456	2.0000
49.8690	-0.7723	-1.8449	2.0000
49.8680	-0.7742	-1.8441	2.0000
49.8670	-0.7760	-1.8433	2.0000
49.8660	-0.7779	-1.8425	2.0000
49.8650	-0.7797	-1.8417	2.0000
49.8640	-0.7816	-1.8410	2.0000
49.8630	-0.7834	-1.8402	2.0000
49.8620	-0.7852	-1.8394	2.0000
49.8610	-0.7871	-1.8386	2.0000
49.8600	-0.7889	-1.8378	2.0000
49.8590	-0.7908	-1.8370	2.0000
49.8580	-0.7926	-1.8362	2.0000
49.8570	-0.7944	-1.8355	2.0000
49.8560	-0.7963	-1.8347	2.0000
49.8550	-0.7981	-1.8339	2.0000
49.8540	-0.7999	-1.8331	2.0000
49.8530	-0.8018	-1.8323	2.0000
49.8520	-0.8036	-1.8315	2.0000
49.8510	-0.8054	-1.8307	2.0000
49.8500	-0.8073	-1.8298	2.0000
49.8490	-0.8091	-1.8290	2.0000
49.8480	-0.8109	-1.8282	2.0000
49.8470	-0.8127	-1.8274	2.0000
49.8460	-0.8146	-1.8266	2.0000
49.8450	-0.8164	-1.8258	2.0000
49.8440	-0.8182	-1.8250	2.0000
49.8430	-0.8200	-1.8241	2.0000
49.8420	-0.8219	-1.8233	2.0000
49.8410	-0.8237	-1.8225	2.0000
49.8400	-0.8255	-1.8217	2.0000
49.8390	-0.8273	-1.8209	2.0000
49.8380	-0.8292	-1.8200	2.0000
49.8370	-0.8310	-1.8192	2.0000
49.8360	-0.8328	-1.8184	2.0000
49.8350	-0.8346	-1.8175	2.0000
49.8340	-0.8364	-1.8167	2.0000
49.8330	-0.8382	-1.8159	2.0000
49.8320	-0.8401	-1.8150	2.0000
49.8310	-0.8419	-1.8142	2.0000
49.8300	-0.8437	-1.8133	2.0000
49.8290	-0.8455	-1.8125	2.0000
49.8280	-0.8473	-1.8116	2.0000
49.8270	-0.8491	-1.8108	2.0000
49.8260	-0.8509	-1.8099	2.0000
49.8250	-0.8527	-1.8091	2.0000
49.8240	-0.8546	-1.8082	2.0000
49.8230	-0.8564	-1.8074	2.0000
49.8220	-0.8582	-1.8065	2.0000
49.8210	-0.8600	-1.8057	2.0000
49.8200	-0.8618	-1.8048	2.0000
49.8190	-0.8636	-1.8039	2.0000
49.8180	-0.8654	-1.8031	2.0000
49.8170	-0.8672	-1.8022	2.0000
49.8160	-0.8690	-1.8013	2.0000
49.8150	-0.8708	-1.8005	2.0000
49.8140	-0.8726	-1.7996	2.0000
49.8130	-0.8744	-1.7987	2.0000
49.8120	-0.8762	-1.7979	2.0000
49.8110	-0.8780	-1.7970	2.0000
49.8100	-0.8798	-1.7961	2.0000
49.8090	-0.8816	-1.7952	2.0000
49.8080	-0.8834	-1.7943	2.0000
49.8070	-0.8852	-1.7935	2.0000
49.8060	-0.8870	-1.7926	2.0000
49.8050	-0.8888	-1.7917	2.0000
49.8040	-0.8905	-1.7908	2.0000
49.8030	-0.8923	-1.7899	2.0000
49.8020	-0.8941	-1.7890	2.0000
49.8010	-0.8959	-1.7881	2.0000
49.8000	-0.8977	-1.7872	2.0000
49.7990	-0.8995	-1.7863	2.0000
49.7980	-0.9013	-1.7854	2.0000
49.7970	-0.9031	-1.7845	2.0000
49.7960	-0.9048	-1.7836	2.0000
49.7950	-0.9066	-1.7827	2.0000
49.7940	-0.9084	-1.7818	2.0000
49.7930	-0.9102	-1.7809	2.0000
49.7920	-0.9120	-1.7800	2.0000
49.7910	-0.9138	-1.7791	2.0000
49.7900	-0.9155	-1.7781	2.0000
49.7890	-0.9173	-1.7772	2.0000
49.7880	-0.9191	-1.7763	2.0000
49.7870	-0.9209	-1.7754	2.0000
49.7860	-0.9226	-1.7745	2.0000
49.7850	-0.9244	-1.7735	2.0000
49.7840	-0.9262	-1.7726	2.0000
49.7830	-0.9280	-1.7717	2.0000
49.7820	-0.9297	-1.7708	2.0000
49.7810	-0.9315	-1.7698	2.0000
49.7800	-0.9333	-1.7689	2.0000
49.7790	-0.9350	-1.7680	2.0000
49.7780	-0.9368	-1.7670	2.0000
49.7770	-0.9386	-1.7661	2.0000
49.7760	-0.9403	-1.7652	2.0000
49.7750	-0.9421	-1.7642	2.0000
49.7740	-0.9439	-1.7633	2.0000
49.7730	-0.9456	-1.7623	2.0000
49.7720	-0.9474	-1.7614	2.0000
49.7710	-0.9491	-1.7604	2.0000
49.7700	-0.9509	-1.7595	2.0000
49.7690	-0.9527	-1.7585	2.0000
49.7680	-0.9544	-1.7576	2.0000
49.7670	-0.9562	-1.7566	2.0000
49.7660	-0.9579	-1.7557	2.0000
49.7650	-0.9597	-1.7547	2.0000
49.7640	-0.9614	-1.7537	2.0000
49.7630	-0.9632	-1.7528	2.0000
49.7620	-0.9650	-1.7518	2.0000
49.7610	-0.9667	-1.7509	2.0000
49.7600	-0.9685	-1.7499	2.0000
49.7590	-0.9702	-1.7489	2.0000
49.7580	-0.9720	-1.7479	2.0000
49.7570	-0.9737	-1.7470	2.0000
49.7560	-0.9754	-1.7460	2.0000
49.7550	-0.9772	-1.7450	2.0000
49.7540	-0.9789	-1.7440	2.0000
49.7530	-0.9807	-1.7431	2.0000
49.7520	-0.9824	-1.7421	2.0000
49.7510	-0.9842	-1.7411	2.0000
49.7500	-0.9859	-1.7401	2.0000
49.7490	-0.9876	-1.7391	2.0000
49.7480	-0.9894	-1.7381	2.0000
49.7470	-0.9911	-1.7371	2.0000
49.7460	-0.9929	-1.7362	2.0000
49.7450	-0.9946	-1.7352	2.0000
49.7440	-0.9963	-1.7342	2.0000
49.7430	-0.9981	-1.7332	2.0000
49.7420	-0.9998	-1.7322	2.0000
49.7410	-1.0015	-1.7312	2.0000
49.7400	-1.0033	-1.7302	2.0000
49.7390	-1.0050	-1.7292	2.0000
49.7380	-1.0067	-1.7282	2.0000
49.7370	-1.0084	-1.7271	2.0000
49.7360	-1.0102	-1.7261	2.0000
49.7350	-1.0119	-1.7251	2.0000
49.7340	-1.0136	-1.7241	2.0000
49.7330	-1.0153	-1.7231	2.0000
49.7320	-1.0171	-1.7221	2.0000
49.7310	-1.0188	-1.7211	2.0000
49.7300	-1.0205	-1.7200	2.0000
49.7290	-1.0222	-1.7190	2.0000
49.7280	-1.0239	-1.7180	2.0000
49.7270	-1.0257	-1.7170	2.0000
49.7260	-1.0274	-1.7160	2.0000
49.7250	-1.0291	-1.7149	2.0000
49.7240	-1.0308	-1.7139	2.0000
49.7230	-1.0325	-1.7129	2.0000
49.7220	-1.0342	-1.7118	2.0000
49.7210	-1.0359	-1.7108	2.0000
49.7200	-1.0377	-1.7098	2.0000
49.7190	-1.0394	-1.7087	2.0000
49.7180	-1.0411	-1.7077	2.0000
49.7170	-1.0428	-1.7066	2.0000
49.7160	-1.0445	-1.7056	2.0000
49.7150	-1.0462	-1.7045	2.0000
49.7140	-1.0479	-1.7035	2.0000
49.7130	-1.0496	-1.7025	2.0000
49.7120	-1.0513	-1.7014	2.0000
49.7110	-1.0530	-1.7003	2.0000
49.7100	-1.0547	-1.6993	2.0000
49.7090	-1.0564	-1.6982	2.0000
49.7080	-1.0581	-1.6972	2.0000
49.7070	-1.0598	-1.6961	2.0000
49.7060	-1.0615	-1.6951	2.0000
49.7050	-1.0632	-1.6940	2.0000
49.7040	-1.0649	-1.6929	2.0000
49.7030	-1.0666	-1.6919	2.0000
49.7020	-1.0683	-1.6908	2.0000
49.7010	-1.0700	-1.6897	2.0000
49.7000	-1.0716	-1.6887	2.0000
49.6990	-1.0733	-1.6876	2.0000
49.6980	-1.0750	-1.6865	2.0000
49.6970	-1.0767	-1.6854	2.0000
49.6960	-1.0784	-1.6844	2.0000
49.6950	-1.0801	-1.6833	2.0000
49.6940	-1.0818	-1.6822	2.0000
49.6930	-1.0834	-1.6811	2.0000
49.6920	-1.0851	-1.6800	2.0000
49.6910	-1.0868	-1.6789	2.0000
49.6900	-1.0885	-1.6779	2.0000
49.6890	-1.0902	-1.6768	2.0000
49.6880	-1.0918	-1.6757	2.0000
49.6870	-1.0935	-1.6746	2.0000
49.6860	-1.0952	-1.6735	2.0000
49.6850	-1.0969	-1.6724	2.0000
49.6840	-1.0985	-1.6713	2.0000
49.6830	-1.1002	-1.6702	2.0000
49.6820	-1.1019	-1.6691	2.0000
49.6810	-1.1035	-1.6680	2.0000
49.6800	-1.1052	-1.6669	2.0000
49.6790	-1.1069	-1.6658	2.0000
49.6780	-1.1085	-1.6647	2.0000
49.6770	-1.1102	-1.6636	2.0000
49.6760	-1.1119	-1.6625	2.0000
49.6750	-1.1135	-1.6613	2.0000
49.6740	-1.1152	-1.6602	2.0000
49.6730	-1.1168	-1.6591	2.0000
49.6720	-1.1185	-1.6580	2.0000
49.6710	-1.1202	-1.6569	2.0000
49.6700	-1.1218	-1.6558	2.0000
49.6690	-1.1235	-1.6546	2.0000
49.6680	-1.1251	-1.6535	2.0000
49.6670	-1.1268	-1.6524	2.0000
49.6660	-1.1284	-1.6513	2.0000
49.6650	-1.1301	-1.6501	2.0000
49.6640	-1.1317	-1.6490	2.0000
49.6630	-1.1334	-1.6479	2.0000
49.6620	-1.1350	-1.6467	2.0000
49.6610	-1.1367	-1.6456	2.0000
49.6600	-1.1383	-1.6445	2.0000
49.6590	-1.1400	-1.6433	2.0000
49.6580	-1.1416	-1.6422	2.0000
49.6570	-1.1432	-1.6410	2.0000
49.6560	-1.1449	-1.6399	2.0000
49.6550	-1.1465	-1.6387	2.0000
49.6540	-1.1482	-1.6376	2.0000
49.6530	-1.1498	-1.6364	2.0000
49.6520	-1.1514	-1.6353	2.0000
49.6510	-1.1531	-1.6341	2.0000
49.6500	-1.1547	-1.6330	2.0000
49.6490	-1.1563	-1.6318	2.0000
49.6480	-1.1580	-1.6307	2.0000
49.6470	-1.1596	-1.6295	2.0000
49.6460	-1.1612	-1.6284	2.0000
49.6450	-1.1629	-1.6272	2.0000
49.6440	-1.1645	-1.6260	2.0000
49.6430	-1.1661	-1.6249	2.0000
49.6420	-1.1677	-1.6237	2.0000
49.6410	-1.1694	-1.6225	2.0000
49.6400	-1.1710	-1.6214	2.0000
49.6390	-1.1726	-1.6202	2.0000
49.6380	-1.1742	-1.6190	2.0000
49.6370	-1.1758	-1.6178	2.0000
49.6360	-1.1774	-1.6167	2.0000
49.6350	-1.1791	-1.6155	2.0000
49.6340	-1.1807	-1.6143	2.0000
49.6330	-1.1823	-1.6131	2.0000
49.6320	-1.1839	-1.6119	2.0000
49.6310	-1.1855	-1.6108	2.0000
49.6300	-1.1871	-1.6096	2.0000
49.6290	-1.1887	-1.6084	2.0000
49.6280	-1.1903	-1.6072	2.0000
49.6270	-1.1920	-1.6060	2.0000
49.6260	-1.1936	-1.6048	2.0000
49.6250	-1.1952	-1.6036	2.0000
49.6240	-1.1968	-1.6024	2.0000
49.6230	-1.1984	-1.6012	2.0000
49.6220	-1.2000	-1.6000	2.0000
49.6210	-1.2016	-1.5988	2.0000
49.6200	-1.2032	-1.5976	2.0000
49.6190	-1.2048	-1.5964	2.0000
49.6180	-1.2064	-1.5952	2.0000
49.6170	-1.2080	-1.5940	2.0000
49.6160	-1.2095	-1.5928	2.0000
49.6150	-1.2111	-1.5916	2.0000
49.6140	-1.2127	-1.5904	2.0000
49.6130	-1.2143	-1.5892	2.0000
49.6120	-1.2159	-1.5879	2.0000
49.6110	-1.2175	-1.5867	2.0000
49.6100	-1.2191	-1.5855	2.0000
49.6090	-1.2207	-1.5843	2.0000
49.6080	-1.2222	-1.5831	2.0000
49.6070	-1.2238	-1.5818	2.0000
49.6060	-1.2254	-1.5806	2.0000
49.6050	-1.2270	-1.5794	2.0000
49.6040	-1.2286	-1.5782	2.0000
49.6030	-1.2301	-1.5769	2.0000
49.6020	-1.2317	-1.5757	2.0000
49.6010	-1.2333	-1.5745	2.0000
49.6000	-1.2349	-1.5732	2.0000
49.5990	-1.2364	-1.5720	2.0000
49.5980	-1.2380	-1.5708	2.0000
49.5970	-1.2396	-1.5695	2.0000
49.5960	-1.2412	-1.5683	2.0000
49.5950	-1.2427	-1.5670	2.0000
49.5940	-1.2443	-1.5658	2.0000
49.5930	-1.2459	-1.5646	2.0000
49.5920	-1.2474	-1.5633	2.0000
49.5910	-1.2490	-1.5621	2.0000
49.5900	-1.2505	-1.5608	2.0000
49.5890	-1.2521	-1.5596	2.0000
49.5880	-1.2537	-1.5583	2.0000
49.5870	-1.2552	-1.5571	2.0000
49.5860	-1.2568	-1.5558	2.0000
49.5850	-1.2583	-1.5545	2.0000
49.5840	-1.2599	-1.5533	2.0000
49.5830	-1.2614	-1.5520	2.0000
49.5820	-1.2630	-1.5508	2.0000
49.5810	-1.2645	-1.5495	2.0000
49.5800	-1.2661	-1.5482	2.0000
49.5790	-1.2676	-1.5470	2.0000
49.5780	-1.2692	-1.5457	2.0000
49.5770	-1.2707	-1.5444	2.0000
49.5760	-1.2723	-1.5432	2.0000
49.5750	-1.2738	-1.5419	2.0000
49.5740	-1.2754	-1.5406	2.0000
49.5730	-1.2769	-1.5393	2.0000
49.5720	-1.2784	-1.5381	2.0000
49.5710	-1.2800	-1.5368	2.0000
49.5700	-1.2815	-1.5355	2.0000
49.5690	-1.2830	-1.5342	2.0000
49.5680	-1.2846	-1.5329	2.0000
49.5670	-1.2861	-1.5316	2.0000
49.5660	-1.2876	-1.5304	2.0000
49.5650	-1.2892	-1.5291	2.0000
49.5640	-1.2907	-1.5278	2.0000
49.5630	-1.2922	-1.5265	2.0000
49.5620	-1.2938	-1.5252	2.0000
49.5610	-1.2953	-1.5239	2.0000
49.5600	-1.2968	-1.5226	2.0000
49.5590	-1.2983	-1.5213	2.0000
49.5580	-1.2998	-1.5200	2.0000
49.5570	-1.3014	-1.5187	2.0000
49.5560	-1.3029	-1.5174	2.0000
49.5550	-1.3044	-1.5161	2.0000
49.5540	-1.3059	-1.5148	2.0000
49.5530	-1.3074	-1.5135	2.0000
49.5520	-1.3089	-1.5122	2.0000
49.5510	-1.3105	-1.5109	2.0000
49.5500	-1.3120	-1.5096	2.0000
49.5490	-1.3135	-1.5082	2.0000
49.5480	-1.3150	-1.5069	2.0000
49.5470	-1.3165	-1.5056	2.0000
49.5460	-1.3180	-1.5043	2.0000
49.5450	-1.3195	-1.5030	2.0000
49.5440	-1.3210	-1.5017	2.0000
49.5430	-1.3225	-1.5003	2.0000
49.5420	-1.3240	-1.4990	2.0000
49.5410	-1.3255	-1.4977	2.0000
49.5400	-1.3270	-1.4964	2.0000
49.5390	-1.3285	-1.4950	2.0000
49.5380	-1.3300	-1.4937	2.0000
49.5370	-1.3315	-1.4924	2.0000
49.5360	-1.3330	-1.4910	2.0000
49.5350	-1.3345	-1.4897	2.0000
49.5340	-1.3359	-1.4884	2.0000
49.5330	-1.3374	-1.4870	2.0000
49.5320	-1.3389	-1.4857	2.0000
49.5310	-1.3404	-1.4844	2.0000
49.5300	-1.3419	-1.4830	2.0000
49.5290	-1.3434	-1.4817	2.0000
49.5280	-1.3449	-1.4803	2.0000
49.5270	-1.3463	-1.4790	2.0000
49.5260	-1.3478	-1.4776	2.0000
49.5250	-1.3493	-1.4763	2.0000
49.5240	-1.3508	-1.4749	2.0000
49.5230	-1.3522	-1.4736	2.0000
49.5220	-1.3537	-1.4722	2.0000
49.5210	-1.3552	-1.4709	2.0000
49.5200	-1.3566	-1.4695	2.0000
49.5190	-1.3581	-1.4682	2.0000
49.5180	-1.3596	-1.4668	2.0000
49.5170	-1.3611	-1.4654	2.0000
49.5160	-1.3625	-1.4641	2.0000
49.5150	-1.3640	-1.4627	2.0000
49.5140	-1.3654	-1.4614	2.0000
49.5130	-1.3669	-1.4600	2.0000
49.5120	-1.3684	-1.4586	2.0000
49.5110	-1.3698	-1.4573	2.0000
49.5100	-1.3713	-1.4559	2.0000
49.5090	-1.3727	-1.4545	2.0000
49.5080	-1.3742	-1.4531	2.0000
49.5070	-1.3756	-1.4518	2.0000
49.5060	-1.3771	-1.4504	2.0000
49.5050	-1.3785	-1.4490	2.0000
49.5040	-1.3800	-1.4476	2.0000
49.5030	-1.3814	-1.4462	2.0000
49.5020	-1.3829	-1.4449	2.0000
49.5010	-1.3843	-1.4435	2.0000
49.5000	-1.3858	-1.4421	2.0000
49.4990	-1.3872	-1.4407	2.0000
49.4980	-1.3886	-1.4393	2.0000
49.4970	-1.3901	-1.4379	2.0000
49.4960	-1.3915	-1.4365	2.0000
49.4950	-1.3930	-1.4352	2.0000
49.4940	-1.3944	-1.4338	2.0000
49.4930	-1.3958	-1.4324	2.0000
49.4920	-1.3973	-1.4310	2.0000
49.4910	-1.3987	-1.4296	2.0000
49.4900	-1.4001	-1.4282	2.0000
49.4890	-1.4015	-1.4268	2.0000
49.4880	-1.4030	-1.4254	2.0000
49.4870	-1.4044	-1.4240	2.0000
49.4860	-1.4058	-1.4226	2.0000
49.4850	-1.4072	-1.4212	2.0000
49.4840	-1.4087	-1.4197	2.0000
49.4830	-1.4101	-1.4183	2.0000
49.4820	-1.4115	-1.4169	2.0000
49.4810	-1.4129	-1.4155	2.0000
49.4800	-1.4143	-1.4141	2.0000
49.4790	-1.4157	-1.4127	2.0000
49.4780	-1.4172	-1.4113	2.0000
49.4770	-1.4186	-1.4098	2.0000
49.4760	-1.4200	-1.4084	2.0000
49.4750	-1.4214	-1.4070	2.0000
49.4740	-1.4228	-1.4056	2.0000
49.4730	-1.4242	-1.4042	2.0000
49.4720	-1.4256	-1.4027	2.0000
49.4710	-1.4270	-1.4013	2.0000
49.4700	-1.4284	-1.3999	2.0000
49.4690	-1.4298	-1.3985	2.0000
49.4680	-1.4312	-1.3970	2.0000
49.4670	-1.4326	-1.3956	2.0000
49.4660	-1.4340	-1.3942	2.0000
49.4650	-1.4354	-1.3927	2.0000
49.4640	-1.4368	-1.3913	2.0000
49.4630	-1.4382	-1.3899	2.0000
49.4620	-1.4396	-1.3884	2.0000
49.4610	-1.4409	-1.3870	2.0000
49.4600	-1.4423	-1.3855	2.0000
49.4590	-1.4437	-1.3841	2.0000
49.4580	-1.4451	-1.3826	2.0000
49.4570	-1.4465	-1.3812	2.0000
49.4560	-1.4479	-1.3797	2.0000
49.4550	-1.4492	-1.3783	2.0000
49.4540	-1.4506	-1.3769	2.0000
49.4530	-1.4520	-1.3754	2.0000
49.4520	-1.4534	-1.3739	2.0000
49.4510	-1.4547	-1.3725	2.0000
49.4500	-1.4561	-1.3710	2.0000
49.4490	-1.4575	-1.3696	2.0000
49.4480	-1.4588	-1.3681	2.0000
49.4470	-1.4602	-1.3667	2.0000
49.4460	-1.4616	-1.3652	2.0000
49.4450	-1.4629	-1.3637	2.0000
49.4440	-1.4643	-1.3623	2.0000
49.4430	-1.4657	-1.3608	2.0000
49.4420	-1.4670	-1.3593	2.0000
49.4410	-1.4684	-1.3579	2.0000
49.4400	-1.4697	-1.3564	2.0000
49.4390	-1.4711	-1.3549	2.0000
49.4380	-1.4725	-1.3535	2.0000
49.4370	-1.4738	-1.3520	2.0000
49.4360	-1.4752	-1.3505	2.0000
49.4350	-1.4765	-1.3490	2.0000
49.4340	-1.4779	-1.3476	2.0000
49.4330	-1.4792	-1.3461	2.0000
49.4320	-1.4806	-1.3446	2.0000
49.4310	-1.4819	-1.3431	2.0000
49.4300	-1.4832	-1.3416	2.0000
49.4290	-1.4846	-1.3402	2.0000
49.4280	-1.4859	-1.3387	2.0000
49.4270	-1.4873	-1.3372	2.0000
49.4260	-1.4886	-1.3357	2.0000
49.4250	-1.4899	-1.3342	2.0000
49.4240	-1.4913	-1.3327	2.0000
49.4230	-1.4926	-1.3312	2.0000
49.4220	-1.4939	-1.3297	2.0000
49.4210	-1.4953	-1.3282	2.0000
49.4200	-1.4966	-1.3267	2.0000
49.4190	-1.4979	-1.3252	2.0000
49.4180	-1.4992	-1.3237	2.0000
49.4170	-1.5006	-1.3222	2.0000
49.4160	-1.5019	-1.3207	2.0000
49.4150	-1.5032	-1.3192	2.0000
49.4140	-1.5045	-1.3177	2.0000
49.4130	-1.5058	-1.3162	2.0000
49.4120	-1.5071	-1.3147	2.0000
49.4110	-1.5085	-1.3132	2.0000
49.4100	-1.5098	-1.3117	2.0000
49.4090	-1.5111	-1.3102	2.0000
49.4080	-1.5124	-1.3087	2.0000
49.4070	-1.5137	-1.3072	2.0000
49.4060	-1.5150	-1.3057	2.0000
49.4050	-1.5163	-1.3041	2.0000
49.4040	-1.5176	-1.3026	2.0000
49.4030	-1.5189	-1.3011	2.0000
49.4020	-1.5202	-1.2996	2.0000
49.4010	-1.5215	-1.2981	2.0000
49.4000	-1.5228	-1.2965	2.0000
49.3990	-1.5241	-1.2950	2.0000
49.3980	-1.5254	-1.2935	2.0000
49.3970	-1.5267	-1.2920	2.0000
49.3960	-1.5280	-1.2904	2.0000
49.3950	-1.5293	-1.2889	2.0000
49.3940	-1.5306	-1.2874	2.0000
49.3930	-1.5319	-1.2859	2.0000
49.3920	-1.5331	-1.2843	2.0000
49.3910	-1.5344	-1.2828	2.0000
49.3900	-1.5357	-1.2813	2.0000
49.3890	-1.5370	-1.2797	2.0000
49.3880	-1.5383	-1.2782	2.0000
49.3870	-1.5395	-1.2766	2.0000
49.3860	-1.5408	-1.2751	2.0000
49.3850	-1.5421	-1.2736	2.0000
49.3840	-1.5434	-1.2720	2.0000
49.3830	-1.5446	-1.2705	2.0000
49.3820	-1.5459	-1.2689	2.0000
49.3810	-1.5472	-1.2674	2.0000
49.3800	-1.5484	-1.2658	2.0000
49.3790	-1.5497	-1.2643	2.0000
49.3780	-1.5510	-1.2627	2.0000
49.3770	-1.5522	-1.2612	2.0000
49.3760	-1.5535	-1.2596	2.0000
49.3750	-1.5547	-1.2581	2.0000
49.3740	-1.5560	-1.2565	2.0000
49.3730	-1.5573	-1.2550	2.0000
49.3720	-1.5585	-1.2534	2.0000
49.3710	-1.5598	-1.2518	2.0000
49.3700	-1.5610	-1.2503	2.0000
49.3690	-1.5623	-1.2487	2.0000
49.3680	-1.5635	-1.2472	2.0000
49.3670	-1.5648	-1.2456	2.0000
49.3660	-1.5660	-1.2440	2.0000
49.3650	-1.5673	-1.2425	2.0000
49.3640	-1.5685	-1.2409	2.0000
49.3630	-1.5697	-1.2393	2.0000
49.3620	-1.5710	-1.2378	2.0000
49.3610	-1.5722	-1.2362	2.0000
49.3600	-1.5734	-1.2346	2.0000
49.3590	-1.5747	-1.2330	2.0000
49.3580	-1.5759	-1.2315	2.0000
49.3570	-1.5771	-1.2299	2.0000
49.3560	-1.5784	-1.2283	2.0000
49.3550	-1.5796	-1.2267	2.0000
49.3540	-1.5808	-1.2252	2.0000
49.3530	-1.5820	-1.2236	2.0000
49.3520	-1.5833	-1.2220	2.0000
49.3510	-1.5845	-1.2204	2.0000
49.3500	-1.5857	-1.2188	2.0000
49.3490	-1.5869	-1.2172	2.0000
49.3480	-1.5881	-1.2156	2.0000
49.3470	-1.5894	-1.2141	2.0000
49.3460	-1.5906	-1.2125	2.0000
49.3450	-1.5918	-1.2109	2.0000
49.3440	-1.5930	-1.2093	2.0000
49.3430	-1.5942	-1.2077	2.0000
49.3420	-1.5954	-1.2061	2.0000
49.3410	-1.5966	-1.2045	2.0000
49.3400	-1.5978	-1.2029	2.0000
49.3390	-1.5990	-1.2013	2.0000
49.3380	-1.6002	-1.1997	2.0000
49.3370	-1.6014	-1.1981	2.0000
49.3360	-1.6026	-1.1965	2.0000
49.3350	-1.6038	-1.1949	2.0000
49.3340	-1.6050	-1.1933	2.0000
49.3330	-1.6062	-1.1917	2.0000
49.3320	-1.6074	-1.1901	2.0000
49.3310	-1.6086	-1.1885	2.0000
49.3300	-1.6098	-1.1869	2.0000
49.3290	-1.6110	-1.1853	2.0000
49.3280	-1.6121	-1.1836	2.0000
49.3270	-1.6133	-1.1820	2.0000
49.3260	-1.6145	-1.1804	2.0000
49.3250	-1.6157	-1.1788	2.0000
49.3240	-1.6169	-1.1772	2.0000
49.3230	-1.6180	-1.1756	2.0000
49.3220	-1.6192	-1.1739	2.0000
49.3210	-1.6204	-1.1723	2.0000
49.3200	-1.6216	-1.1707	2.0000
49.3190	-1.6227	-1.1691	2.0000
49.3180	-1.6239	-1.1675	2.0000
49.3170	-1.6251	-1.1658	2.0000
49.3160	-1.6262	-1.1642	2.0000
49.3150	-1.6274	-1.1626	2.0000
49.3140	-1.6286	-1.1610	2.0000
49.3130	-1.6297	-1.1593	2.0000
49.3120	-1.6309	-1.1577	2.0000
49.3110	-1.6320	-1.1561	2.0000
49.3100	-1.6332	-1.1544	2.0000
49.3090	-1.6343	-1.1528	2.0000
49.3080	-1.6355	-1.1512	2.0000
49.3070	-1.6366	-1.1495	2.0000
49.3060	-1.6378	-1.1479	2.0000
49.3050	-1.6389	-1.1463	2.0000
49.3040	-1.6401	-1.1446	2.0000
49.3030	-1.6412	-1.1430	2.0000
49.3020	-1.6424	-1.1413	2.0000
49.3010	-1.6435	-1.1397	2.0000
49.3000	-1.6446	-1.1380	2.0000
49.2990	-1.6458	-1.1364	2.0000
49.2980	-1.6469	-1.1348	2.0000
49.2970	-1.6481	-1.1331	2.0000
49.2960	-1.6492	-1.1315	2.0000
49.2950	-1.6503	-1.1298	2.0000
49.2940	-1.6514	-1.1282	2.0000
49.2930	-1.6526	-1.1265	2.0000
49.2920	-1.6537	-1.1249	2.0000
49.2910	-1.6548	-1.1232	2.0000
49.2900	-1.6559	-1.1215	2.0000
49.2890	-1.6571	-1.1199	2.0000
49.2880	-1.6582	-1.1182	2.0000
49.2870	-1.6593	-1.1166	2.0000
49.2860	-1.6604	-1.1149	2.0000
49.2850	-1.6615	-1.1132	2.0000
49.2840	-1.6626	-1.1116	2.0000
49.2830	-1.6638	-1.1099	2.0000
49.2820	-1.6649	-1.1083	2.0000
49.2810	-1.6660	-1.1066	2.0000
49.2800	-1.6671	-1.1049	2.0000
49.2790	-1.6682	-1.1033	2.0000
49.2780	-1.6693	-1.1016	2.0000
49.2770	-1.6704	-1.0999	2.0000
49.2760	-1.6715	-1.0982	2.0000
49.2750	-1.6726	-1.0966	2.0000
49.2740	-1.6737	-1.0949	2.0000
49.2730	-1.6748	-1.0932	2.0000
49.2720	-1.6759	-1.0916	2.0000
49.2710	-1.6770	-1.0899	2.0000
49.2700	-1.6780	-1.0882	2.0000
49.2690	-1.6791	-1.0865	2.0000
49.2680	-1.6802	-1.0848	2.0000
49.2670	-1.6813	-1.0832	2.0000
49.2660	-1.6824	-1.0815	2.0000
49.2650	-1.6835	-1.0798	2.0000
49.2640	-1.6845	-1.0781	2.0000
49.2630	-1.6856	-1.0764	2.0000
49.2620	-1.6867	-1.0747	2.0000
49.2610	-1.6878	-1.0731	2.0000
49.2600	-1.6888	-1.0714	2.0000
49.2590	-1.6899	-1.0697	2.0000
49.2580	-1.6910	-1.0680	2.0000
49.2570	-1.6920	-1.0663	2.0000
49.2560	-1.6931	-1.0646	2.0000
49.2550	-1.6942	-1.0629	2.0000
49.2540	-1.6952	-1.0612	2.0000
49.2530	-1.6963	-1.0595	2.0000
49.2520	-1.6974	-1.0578	2.0000
49.2510	-1.6984	-1.0561	2.0000
49.2500	-1.6995	-1.0544	2.0000
49.2490	-1.7005	-1.0527	2.0000
49.2480	-1.7016	-1.0510	2.0000
49.2470	-1.7026	-1.0493	2.0000
49.2460	-1.7037	-1.0476	2.0000
49.2450	-1.7047	-1.0459	2.0000
49.2440	-1.7058	-1.0442	2.0000
49.2430	-1.7068	-1.0425	2.0000
49.2420	-1.7078	-1.0408	2.0000
49.2410	-1.7089	-1.0391	2.0000
49.2400	-1.7099	-1.0374	2.0000
49.2390	-1.7110	-1.0357	2.0000
49.2380	-1.7120	-1.0340	2.0000
49.2370	-1.7130	-1.0322	2.0000
49.2360	-1.7141	-1.0305	2.0000
49.2350	-1.7151	-1.0288	2.0000
49.2340	-1.7161	-1.0271	2.0000
49.2330	-1.7171	-1.0254	2.0000
49.2320	-1.7182	-1.0237	2.0000
49.2310	-1.7192	-1.0219	2.0000
49.2300	-1.7202	-1.0202	2.0000
49.2290	-1.7212	-1.0185	2.0000
49.2280	-1.7223	-1.0168	2.0000
49.2270	-1.7233	-1.0151	2.0000
49.2260	-1.7243	-1.0133	2.0000
49.2250	-1.7253	-1.0116	2.0000
49.2240	-1.7263	-1.0099	2.0000
49.2230	-1.7273	-1.0082	2.0000
49.2220	-1.7283	-1.0064	2.0000
49.2210	-1.7293	-1.0047	2.0000
49.2200	-1.7303	-1.0030	2.0000
49.2190	-1.7313	-1.0012	2.0000
49.2180	-1.7323	-0.9995	2.0000
49.2170	-1.7333	-0.9978	2.0000
49.2160	-1.7343	-0.9960	2.0000
49.2150	-1.7353	-0.9943	2.0000
49.2140	-1.7363	-0.9926	2.0000
49.2130	-1.7373	-0.9908	2.0000
49.2120	-1.7383	-0.9891	2.0000
49.2110	-1.7393	-0.9874	2.0000
49.2100	-1.7403	-0.9856	2.0000
49.2090	-1.7413	-0.9839	2.0000
49.2080	-1.7422	-0.9821	2.0000
49.2070	-1.7432	-0.9804	2.0000
49.2060	-1.7442	-0.9787	2.0000
49.2050	-1.7452	-0.9769	2.0000
49.2040	-1.7462	-0.9752	2.0000
49.2030	-1.7471	-0.9734	2.0000
49.2020	-1.7481	-0.9717	2.0000
49.2010	-1.7491	-0.9699	2.0000
49.2000	-1.7500	-0.9682	2.0000
49.1990	-1.7510	-0.9664	2.0000
49.1980	-1.7520	-0.9647	2.0000
49.1970	-1.7529	-0.9629	2.0000
49.1960	-1.7539	-0.9612	2.0000
49.1950	-1.7549	-0.9594	2.0000
49.1940	-1.7558	-0.9577	2.0000
49.1930	-1.7568	-0.9559	2.0000
49.1920	-1.7577	-0.9541	2.0000
49.1910	-1.7587	-0.9524	2.0000
49.1900	-1.7596	-0.9506	2.0000
49.1890	-1.7606	-0.9489	2.0000
49.1880	-1.7615	-0.9471	2.0000
49.1870	-1.7625	-0.9453	2.0000
49.1860	-1.7634	-0.9436	2.0000
49.1850	-1.7644	-0.9418	2.0000
49.1840	-1.7653	-0.9400	2.0000
49.1830	-1.7662	-0.9383	2.0000
49.1820	-1.7672	-0.9365	2.0000
49.1810	-1.7681	-0.9347	2.0000
49.1800	-1.7691	-0.9330	2.0000
49.1790	-1.7700	-0.9312	2.0000
49.1780	-1.7709	-0.9294	2.0000
49.1770	-1.7718	-0.9277	2.0000
49.1760	-1.7728	-0.9259	2.0000
49.1750	-1.7737	-0.9241	2.0000
49.1740	-1.7746	-0.9223	2.0000
49.1730	-1.7755	-0.9206	2.0000
49.1720	-1.7765	-0.9188	2.0000
49.1710	-1.7774	-0.9170	2.0000
49.1700	-1.7783	-0.9152	2.0000
49.1690	-1.7792	-0.9135	2.0000
49.1680	-1.7801	-0.9117	2.0000
49.1670	-1.7810	-0.9099	2.0000
49.1660	-1.7819	-0.9081	2.0000
49.1650	-1.7829	-0.9063	2.0000
49.1640	-1.7838	-0.9046	2.0000
49.1630	-1.7847	-0.9028	2.0000
49.1620	-1.7856	-0.9010	2.0000
49.1610	-1.7865	-0.8992	2.0000
49.1600	-1.7874	-0.8974	2.0000
49.1590	-1.7883	-0.8956	2.0000
49.1580	-1.7892	-0.8938	2.0000
49.1570	-1.7900	-0.8920	2.0000
49.1560	-1.7909	-0.8903	2.0000
49.1550	-1.7918	-0.8885	2.0000
49.1540	-1.7927	-0.8867	2.0000
49.1530	-1.7936	-0.8849	2.0000
49.1520	-1.7945	-0.8831	2.0000
49.1510	-1.7954	-0.8813	2.0000
49.1500	-1.7962	-0.8795	2.0000
49.1490	-1.7971	-0.8777	2.0000
49.1480	-1.7980	-0.8759	2.0000
49.1470	-1.7989	-0.8741	2.0000
49.1460	-1.7997	-0.8723	2.0000
49.1450	-1.8006	-0.8705	2.0000
49.1440	-1.8015	-0.8687	2.0000
49.1430	-1.8024	-0.8669	2.0000
49.1420	-1.8032	-0.8651	2.0000
49.1410	-1.8041	-0.8633	2.0000
49.1400	-1.8049	-0.8615	2.0000
49.1390	-1.8058	-0.8597	2.0000
49.1380	-1.8067	-0.8579	2.0000
49.1370	-1.8075	-0.8561	2.0000
49.1360	-1.8084	-0.8543	2.0000
49.1350	-1.8092	-0.8525	2.0000
49.1340	-1.8101	-0.8506	2.0000
49.1330	-1.8109	-0.8488	2.0000
49.1320	-1.8118	-0.8470	2.0000
49.1310	-1.8126	-0.8452	2.0000
49.1300	-1.8135	-0.8434	2.0000
49.1290	-1.8143	-0.8416	2.0000
49.1280	-1.8152	-0.8398	2.0000
49.1270	-1.8160	-0.8379	2.0000
49.1260	-1.8168	-0.8361	2.0000
49.1250	-1.8177	-0.8343	2.0000
49.1240	-1.8185	-0.8325	2.0000
49.1230	-1.8193	-0.8307	2.0000
49.1220	-1.8202	-0.8289	2.0000
49.1210	-1.8210	-0.8270	2.0000
49.1200	-1.8218	-0.8252	2.0000
49.1190	-1.8226	-0.8234	2.0000
49.1180	-1.8235	-0.8216	2.0000
49.1170	-1.8243	-0.8197	2.0000
49.1160	-1.8251	-0.8179	2.0000
49.1150	-1.8259	-0.8161	2.0000
49.1140	-1.8267	-0.8143	2.0000
49.1130	-1.8275	-0.8124	2.0000
49.1120	-1.8284	-0.8106	2.0000
49.1110	-1.8292	-0.8088	2.0000
49.1100	-1.8300	-0.8070	2.0000
49.1090	-1.8308	-0.8051	2.0000
49.1080	-1.8316	-0.8033	2.0000
49.1070	-1.8324	-0.8015	2.0000
49.1060	-1.8332	-0.7996	2.0000
49.1050	-1.8340	-0.7978	2.0000
49.1040	-1.8348	-0.7960	2.0000
49.1030	-1.8356	-0.7941	2.0000
49.1020	-1.8364	-0.7923	2.0000
49.1010	-1.8372	-0.7905	2.0000
49.1000	-1.8380	-0.7886	2.0000
49.0990	-1.8387	-0.7868	2.0000
49.0980	-1.8395	-0.7849	2.0000
49.0970	-1.8403	-0.7831	2.0000
49.0960	-1.8411	-0.7813	2.0000
49.0950	-1.8419	-0.7794	2.0000
49.0940	-1.8427	-0.7776	2.0000
49.0930	-1.8434	-0.7757	2.0000
49.0920	-1.8442	-0.7739	2.0000
49.0910	-1.8450	-0.7720	2.0000
49.0900	-1.8458	-0.7702	2.0000
49.0890	-1.8465	-0.7684	2.0000
49.0880	-1.8473	-0.7665	2.0000
49.0870	-1.8481	-0.7647	2.0000
49.0860	-1.8488	-0.7628	2.0000
49.0850	-1.8496	-0.7610	2.0000
49.0840	-1.8503	-0.7591	2.0000
49.0830	-1.8511	-0.7573	2.0000
49.0820	-1.8519	-0.7554	2.0000
49.0810	-1.8526	-0.7536	2.0000
49.0800	-1.8534	-0.7517	2.0000
49.0790	-1.8541	-0.7499	2.0000
49.0780	-1.8549	-0.7480	2.0000
49.0770	-1.8556	-0.7461	2.0000
49.0760	-1.8564	-0.7443	2.0000
49.0750	-1.8571	-0.7424	2.0000
49.0740	-1.8578	-0.7406	2.0000
49.0730	-1.8586	-0.7387	2.0000
49.0720	-1.8593	-0.7369	2.0000
49.0710	-1.8600	-0.7350	2.0000
49.0700	-1.8608	-0.7331	2.0000
49.0690	-1.8615	-0.7313	2.0000
49.0680	-1.8622	-0.7294	2.0000
49.0670	-1.8630	-0.7275	2.0000
49.0660	-1.8637	-0.7257	2.0000
49.0650	-1.8644	-0.7238	2.0000
49.0640	-1.8651	-0.7220	2.0000
49.0630	-1.8659	-0.7201	2.0000
49.0620	-1.8666	-0.7182	2.0000
49.0610	-1.8673	-0.7164	2.0000
49.0600	-1.8680	-0.7145	2.0000
49.0590	-1.8687	-0.7126	2.0000
49.0580	-1.8694	-0.7108	2.0000
49.0570	-1.8702	-0.7089	2.0000
49.0560	-1.8709	-0.7070	2.0000
49.0550	-1.8716	-0.7051	2.0000
49.0540	-1.8723	-0.7033	2.0000
49.0530	-1.8730	-0.7014	2.0000
49.0520	-1.8737	-0.6995	2.0000
49.0510	-1.8744	-0.6976	2.0000
49.0500	-1.8751	-0.6958	2.0000
49.0490	-1.8758	-0.6939	2.0000
49.0480	-1.8765	-0.6920	2.0000
49.0470	-1.8772	-0.6901	2.0000
49.0460	-1.8778	-0.6883	2.0000
49.0450	-1.8785	-0.6864	2.0000
49.0440	-1.8792	-0.6845	2.0000
49.0430	-1.8799	-0.6826	2.0000
49.0420	-1.8806	-0.6808	2.0000
49.0410	-1.8813	-0.6789	2.0000
49.0400	-1.8819	-0.6770	2.0000
49.0390	-1.8826	-0.6751	2.0000
49.0380	-1.8833	-0.6732	2.0000
49.0370	-1.8840	-0.6713	2.0000
49.0360	-1.8846	-0.6695	2.0000
49.0350	-1.8853	-0.6676	2.0000