# Time	Position	Velocity	Total Energy
0.0000	0.0000	4.0000	8.0000
0.0100	0.0400	4.0000	8.0008
0.0200	0.0800	4.0000	8.0032
0.0300	0.1200	3.9996	8.0056
0.0400	0.1600	3.9988	8.0080
0.0500	0.2000	3.9976	8.0104
0.0600	0.2399	3.9960	8.0128
0.0700	0.2799	3.9940	8.0152
0.0800	0.3198	3.9916	8.0176
0.0900	0.3597	3.9888	8.0200
0.1000	0.3996	3.9856	8.0224
0.1100	0.4394	3.9820	8.0248
0.1200	0.4792	3.9780	8.0272
0.1300	0.5190	3.9736	8.0295
0.1400	0.5587	3.9688	8.0319
0.1500	0.5984	3.9637	8.0343
0.1600	0.6380	3.9581	8.0367
0.1700	0.6775	3.9521	8.0390
0.1800	0.7170	3.9457	8.0414
0.1900	0.7564	3.9390	8.0438
0.2000	0.7958	3.9318	8.0461
0.2100	0.8351	3.9242	8.0485
0.2200	0.8743	3.9163	8.0509
0.2300	0.9134	3.9080	8.0532
0.2400	0.9524	3.8992	8.0555
0.2500	0.9914	3.8901	8.0579
0.2600	1.0302	3.8806	8.0602
0.2700	1.0690	3.8707	8.0625
0.2800	1.1076	3.8604	8.0649
0.2900	1.1462	3.8498	8.0672
0.3000	1.1846	3.8387	8.0695
0.3100	1.2230	3.8273	8.0718
0.3200	1.2612	3.8154	8.0741
0.3300	1.2993	3.8032	8.0763
0.3400	1.3372	3.7907	8.0786
0.3500	1.3751	3.7777	8.0809
0.3600	1.4128	3.7644	8.0832
0.3700	1.4504	3.7506	8.0854
0.3800	1.4878	3.7365	8.0877
0.3900	1.5251	3.7221	8.0899
0.4000	1.5622	3.7072	8.0921
0.4100	1.5992	3.6920	8.0943
0.4200	1.6361	3.6765	8.0966
0.4300	1.6728	3.6605	8.0988
0.4400	1.7093	3.6442	8.1009
0.4500	1.7456	3.6275	8.1031
0.4600	1.7818	3.6105	8.1053
0.4700	1.8179	3.5931	8.1075
0.4800	1.8537	3.5753	8.1096
0.4900	1.8894	3.5572	8.1117
0.5000	1.9248	3.5387	8.1139
0.5100	1.9601	3.5199	8.1160
0.5200	1.9952	3.5007	8.1181
0.5300	2.0301	3.4812	8.1202
0.5400	2.0649	3.4613	8.1223
0.5500	2.0994	3.4411	8.1243
0.5600	2.1337	3.4206	8.1264
0.5700	2.1678	3.3996	8.1284
0.5800	2.2017	3.3784	8.1305
0.5900	2.2353	3.3568	8.1325
0.6000	2.2688	3.3349	8.1345
0.6100	2.3020	3.3126	8.1365
0.6200	2.3351	3.2901	8.1385
0.6300	2.3678	3.2671	8.1404
0.6400	2.4004	3.2439	8.1424
0.6500	2.4327	3.2203	8.1443
0.6600	2.4648	3.1964	8.1463
0.6700	2.4966	3.1722	8.1482
0.6800	2.5282	3.1477	8.1501
0.6900	2.5596	3.1229	8.1520
0.7000	2.5907	3.0977	8.1538
0.7100	2.6216	3.0723	8.1557
0.7200	2.6521	3.0465	8.1575
0.7300	2.6825	3.0204	8.1593
0.7400	2.7126	2.9940	8.1611
0.7500	2.7424	2.9674	8.1629
0.7600	2.7719	2.9404	8.1647
0.7700	2.8012	2.9131	8.1664
0.7800	2.8302	2.8856	8.1682
0.7900	2.8589	2.8577	8.1699
0.8000	2.8873	2.8296	8.1716
0.8100	2.9155	2.8012	8.1733
0.8200	2.9433	2.7725	8.1750
0.8300	2.9709	2.7435	8.1766
0.8400	2.9982	2.7143	8.1783
0.8500	3.0252	2.6848	8.1799
0.8600	3.0519	2.6550	8.1815
0.8700	3.0783	2.6249	8.1831
0.8800	3.1044	2.5946	8.1846
0.8900	3.1302	2.5640	8.1862
0.9000	3.1557	2.5332	8.1877
0.9100	3.1809	2.5021	8.1892
0.9200	3.2057	2.4708	8.1907
0.9300	3.2303	2.4392	8.1922
0.9400	3.2545	2.4074	8.1936
0.9500	3.2784	2.3753	8.1951
0.9600	3.3020	2.3430	8.1965
0.9700	3.3253	2.3105	8.1979
0.9800	3.3482	2.2777	8.1993
0.9900	3.3708	2.2447	8.2006
1.0000	3.3931	2.2115	8.2019
1.0100	3.4151	2.1781	8.2033
1.0200	3.4367	2.1444	8.2046
1.0300	3.4579	2.1105	8.2058
1.0400	3.4789	2.0764	8.2071
1.0500	3.4995	2.0421	8.2083
1.0600	3.5197	2.0076	8.2095
1.0700	3.5396	1.9730	8.2107
1.0800	3.5592	1.9381	8.2119
1.0900	3.5784	1.9030	8.2131
1.1000	3.5972	1.8677	8.2142
1.1100	3.6157	1.8322	8.2153
1.1200	3.6339	1.7966	8.2164
1.1300	3.6517	1.7608	8.2175
1.1400	3.6691	1.7247	8.2185
1.1500	3.6862	1.6886	8.2195
1.1600	3.7029	1.6522	8.2205
1.1700	3.7192	1.6157	8.2215
1.1800	3.7352	1.5790	8.2225
1.1900	3.7508	1.5422	8.2234
1.2000	3.7660	1.5052	8.2243
1.2100	3.7809	1.4681	8.2252
1.2200	3.7954	1.4308	8.2261
1.2300	3.8095	1.3934	8.2269
1.2400	3.8232	1.3558	8.2277
1.2500	3.8366	1.3181	8.2285
1.2600	3.8496	1.2803	8.2293
1.2700	3.8622	1.2423	8.2301
1.2800	3.8745	1.2042	8.2308
1.2900	3.8863	1.1660	8.2315
1.3000	3.8978	1.1277	8.2322
1.3100	3.9089	1.0893	8.2329
1.3200	3.9196	1.0507	8.2335
1.3300	3.9299	1.0121	8.2341
1.3400	3.9398	0.9734	8.2347
1.3500	3.9493	0.9345	8.2353
1.3600	3.9585	0.8956	8.2359
1.3700	3.9673	0.8565	8.2364
1.3800	3.9756	0.8174	8.2369
1.3900	3.9836	0.7782	8.2374
1.4000	3.9912	0.7390	8.2378
1.4100	3.9984	0.6996	8.2382
1.4200	4.0052	0.6602	8.2387
1.4300	4.0116	0.6207	8.2390
1.4400	4.0176	0.5812	8.2394
1.4500	4.0232	0.5416	8.2397
1.4600	4.0284	0.5019	8.2400
1.4700	4.0332	0.4622	8.2403
1.4800	4.0377	0.4224	8.2406
1.4900	4.0417	0.3826	8.2408
1.5000	4.0453	0.3428	8.2411
1.5100	4.0485	0.3029	8.2413
1.5200	4.0514	0.2630	8.2414
1.5300	4.0538	0.2231	8.2416
1.5400	4.0558	0.1832	8.2417
1.5500	4.0575	0.1432	8.2418
1.5600	4.0587	0.1032	8.2419
1.5700	4.0595	0.0632	8.2419
1.5800	4.0600	0.0232	8.2419
1.5900	4.0600	-0.0168	8.2419
1.6000	4.0596	-0.0568	8.2419
1.6100	4.0589	-0.0968	8.2419
1.6200	4.0577	-0.1368	8.2418
1.6300	4.0561	-0.1767	8.2417
1.6400	4.0542	-0.2167	8.2416
1.6500	4.0518	-0.2566	8.2415
1.6600	4.0490	-0.2965	8.2413
1.6700	4.0459	-0.3364	8.2411
1.6800	4.0423	-0.3762	8.2409
1.6900	4.0383	-0.4160	8.2406
1.7000	4.0340	-0.4558	8.2404
1.7100	4.0292	-0.4955	8.2401
1.7200	4.0241	-0.5352	8.2398
1.7300	4.0185	-0.5748	8.2395
1.7400	4.0126	-0.6143	8.2391
1.7500	4.0062	-0.6538	8.2387
1.7600	3.9995	-0.6933	8.2383
1.7700	3.9924	-0.7326	8.2379
1.7800	3.9848	-0.7719	8.2374
1.7900	3.9769	-0.8111	8.2370
1.8000	3.9686	-0.8502	8.2365
1.8100	3.9599	-0.8893	8.2359
1.8200	3.9508	-0.9282	8.2354
1.8300	3.9414	-0.9671	8.2348
1.8400	3.9315	-1.0059	8.2342
1.8500	3.9212	-1.0445	8.2336
1.8600	3.9106	-1.0831	8.2330
1.8700	3.8996	-1.1215	8.2323
1.8800	3.8882	-1.1599	8.2316
1.8900	3.8764	-1.1981	8.2309
1.9000	3.8642	-1.2362	8.2302
1.9100	3.8517	-1.2742	8.2294
1.9200	3.8387	-1.3120	8.2287
1.9300	3.8254	-1.3498	8.2279
1.9400	3.8117	-1.3873	8.2270
1.9500	3.7977	-1.4248	8.2262
1.9600	3.7832	-1.4621	8.2253
1.9700	3.7684	-1.4993	8.2245
1.9800	3.7533	-1.5363	8.2235
1.9900	3.7377	-1.5731	8.2226
2.0000	3.7218	-1.6098	8.2217
2.0100	3.7055	-1.6464	8.2207
2.0200	3.6889	-1.6827	8.2197
2.0300	3.6719	-1.7189	8.2187
2.0400	3.6545	-1.7550	8.2176
2.0500	3.6368	-1.7908	8.2165
2.0600	3.6187	-1.8265	8.2155
2.0700	3.6002	-1.8620	8.2144
2.0800	3.5814	-1.8973	8.2132
2.0900	3.5623	-1.9324	8.2121
2.1000	3.5428	-1.9673	8.2109
2.1100	3.5229	-2.0021	8.2097
2.1200	3.5028	-2.0366	8.2085
2.1300	3.4822	-2.0709	8.2073
2.1400	3.4613	-2.1050	8.2060
2.1500	3.4401	-2.1389	8.2047
2.1600	3.4186	-2.1726	8.2035
2.1700	3.3967	-2.2061	8.2021
2.1800	3.3744	-2.2394	8.2008
2.1900	3.3519	-2.2724	8.1995
2.2000	3.3290	-2.3052	8.1981
2.2100	3.3058	-2.3378	8.1967
2.2200	3.2822	-2.3701	8.1953
2.2300	3.2584	-2.4022	8.1938
2.2400	3.2342	-2.4341	8.1924
2.2500	3.2097	-2.4657	8.1909
2.2600	3.1849	-2.4971	8.1894
2.2700	3.1598	-2.5282	8.1879
2.2800	3.1343	-2.5591	8.1864
2.2900	3.1086	-2.5897	8.1848
2.3000	3.0825	-2.6200	8.1833
2.3100	3.0562	-2.6501	8.1817
2.3200	3.0295	-2.6800	8.1801
2.3300	3.0026	-2.7095	8.1785
2.3400	2.9753	-2.7388	8.1769
2.3500	2.9478	-2.7678	8.1752
2.3600	2.9200	-2.7966	8.1735
2.3700	2.8919	-2.8250	8.1718
2.3800	2.8635	-2.8532	8.1701
2.3900	2.8348	-2.8811	8.1684
2.4000	2.8059	-2.9087	8.1667
2.4100	2.7766	-2.9360	8.1649
2.4200	2.7471	-2.9630	8.1632
2.4300	2.7174	-2.9897	8.1614
2.4400	2.6873	-3.0162	8.1596
2.4500	2.6571	-3.0423	8.1577
2.4600	2.6265	-3.0681	8.1559
2.4700	2.5957	-3.0936	8.1541
2.4800	2.5646	-3.1188	8.1522
2.4900	2.5333	-3.1437	8.1503
2.5000	2.5018	-3.1683	8.1484
2.5100	2.4700	-3.1925	8.1465
2.5200	2.4379	-3.2165	8.1446
2.5300	2.4056	-3.2401	8.1426
2.5400	2.3731	-3.2634	8.1407
2.5500	2.3404	-3.2864	8.1387
2.5600	2.3074	-3.3090	8.1367
2.5700	2.2742	-3.3313	8.1348
2.5800	2.2408	-3.3533	8.1327
2.5900	2.2071	-3.3749	8.1307
2.6000	2.1733	-3.3962	8.1287
2.6100	2.1392	-3.4172	8.1266
2.6200	2.1049	-3.4378	8.1246
2.6300	2.0704	-3.4581	8.1225
2.6400	2.0358	-3.4780	8.1204
2.6500	2.0009	-3.4976	8.1183
2.6600	1.9658	-3.5168	8.1162
2.6700	1.9305	-3.5357	8.1141
2.6800	1.8951	-3.5542	8.1120
2.6900	1.8595	-3.5724	8.1098
2.7000	1.8237	-3.5902	8.1077
2.7100	1.7877	-3.6077	8.1055
2.7200	1.7515	-3.6248	8.1034
2.7300	1.7152	-3.6415	8.1012
2.7400	1.6787	-3.6579	8.0990
2.7500	1.6420	-3.6739	8.0968
2.7600	1.6052	-3.6895	8.0946
2.7700	1.5682	-3.7048	8.0924
2.7800	1.5311	-3.7197	8.0901
2.7900	1.4938	-3.7342	8.0879
2.8000	1.4564	-3.7483	8.0856
2.8100	1.4189	-3.7621	8.0834
2.8200	1.3812	-3.7755	8.0811
2.8300	1.3434	-3.7885	8.0788
2.8400	1.3054	-3.8012	8.0766
2.8500	1.2673	-3.8135	8.0743
2.8600	1.2291	-3.8253	8.0720
2.8700	1.1908	-3.8368	8.0697
2.8800	1.1524	-3.8479	8.0674
2.8900	1.1139	-3.8587	8.0651
2.9000	1.0752	-3.8690	8.0627
2.9100	1.0365	-3.8790	8.0604
2.9200	0.9977	-3.8886	8.0581
2.9300	0.9587	-3.8977	8.0557
2.9400	0.9197	-3.9065	8.0534
2.9500	0.8806	-3.9149	8.0510
2.9600	0.8414	-3.9229	8.0487
2.9700	0.8021	-3.9306	8.0463
2.9800	0.7628	-3.9378	8.0440
2.9900	0.7234	-3.9446	8.0416
3.0000	0.6839	-3.9510	8.0392
3.0100	0.6444	-3.9571	8.0369
3.0200	0.6048	-3.9627	8.0345
3.0300	0.5651	-3.9680	8.0321
3.0400	0.5254	-3.9728	8.0297
3.0500	0.4857	-3.9773	8.0273
3.0600	0.4459	-3.9813	8.0249
3.0700	0.4060	-3.9850	8.0225
3.0800	0.3662	-3.9883	8.0201
3.0900	0.3263	-3.9911	8.0177
3.1000	0.2864	-3.9936	8.0153
3.1100	0.2464	-3.9956	8.0129
3.1200	0.2064	-3.9973	8.0105
3.1300	0.1665	-3.9986	8.0081
3.1400	0.1265	-3.9994	8.0057
3.1500	0.0865	-3.9999	8.0033
3.1600	0.0465	-4.0000	8.0009
3.1700	0.0065	-3.9996	7.9985
3.1800	-0.0335	-3.9989	7.9961
3.1900	-0.0735	-3.9978	7.9937
3.2000	-0.1135	-3.9962	7.9913
3.2100	-0.1534	-3.9943	7.9889
3.2200	-0.1934	-3.9919	7.9865
3.2300	-0.2333	-3.9892	7.9841
3.2400	-0.2731	-3.9861	7.9817
3.2500	-0.3130	-3.9825	7.9793
3.2600	-0.3528	-3.9786	7.9769
3.2700	-0.3925	-3.9743	7.9745
3.2800	-0.4323	-3.9696	7.9721
3.2900	-0.4719	-3.9644	7.9698
3.3000	-0.5116	-3.9589	7.9674
3.3100	-0.5511	-3.9530	7.9650
3.3200	-0.5906	-3.9467	7.9626
3.3300	-0.6300	-3.9400	7.9603
3.3400	-0.6694	-3.9329	7.9579
3.3500	-0.7087	-3.9254	7.9555
3.3600	-0.7479	-3.9175	7.9532
3.3700	-0.7870	-3.9092	7.9508
3.3800	-0.8261	-3.9006	7.9485
3.3900	-0.8651	-3.8915	7.9461
3.4000	-0.9039	-3.8821	7.9438
3.4100	-0.9427	-3.8722	7.9415
3.4200	-0.9814	-3.8620	7.9391
3.4300	-1.0199	-3.8514	7.9368
3.4400	-1.0584	-3.8404	7.9345
3.4500	-1.0967	-3.8290	7.9322
3.4600	-1.1350	-3.8173	7.9299
3.4700	-1.1731	-3.8051	7.9276
3.4800	-1.2111	-3.7926	7.9253
3.4900	-1.2489	-3.7797	7.9230
3.5000	-1.2867	-3.7664	7.9208
3.5100	-1.3243	-3.7528	7.9185
3.5200	-1.3617	-3.7387	7.9163
3.5300	-1.3990	-3.7243	7.9140
3.5400	-1.4362	-3.7096	7.9118
3.5500	-1.4732	-3.6944	7.9095
3.5600	-1.5101	-3.6789	7.9073
3.5700	-1.5468	-3.6630	7.9051
3.5800	-1.5834	-3.6468	7.9029
3.5900	-1.6197	-3.6301	7.9007
3.6000	-1.6560	-3.6132	7.8986
3.6100	-1.6920	-3.5958	7.8964
3.6200	-1.7279	-3.5781	7.8942
3.6300	-1.7636	-3.5601	7.8921
3.6400	-1.7991	-3.5416	7.8900
3.6500	-1.8344	-3.5229	7.8878
3.6600	-1.8695	-3.5038	7.8857
3.6700	-1.9045	-3.4843	7.8836
3.6800	-1.9392	-3.4645	7.8815
3.6900	-1.9738	-3.4443	7.8794
3.7000	-2.0081	-3.4238	7.8774
3.7100	-2.0422	-3.4029	7.8753
3.7200	-2.0761	-3.3817	7.8733
3.7300	-2.1099	-3.3602	7.8713
3.7400	-2.1434	-3.3383	7.8692
3.7500	-2.1766	-3.3161	7.8672
3.7600	-2.2097	-3.2936	7.8653
3.7700	-2.2425	-3.2707	7.8633
3.7800	-2.2751	-3.2476	7.8613
3.7900	-2.3074	-3.2240	7.8594
3.8000	-2.3396	-3.2002	7.8574
3.8100	-2.3714	-3.1760	7.8555
3.8200	-2.4031	-3.1516	7.8536
3.8300	-2.4345	-3.1268	7.8517
3.8400	-2.4656	-3.1017	7.8499
3.8500	-2.4965	-3.0763	7.8480
3.8600	-2.5271	-3.0506	7.8461
3.8700	-2.5575	-3.0245	7.8443
3.8800	-2.5876	-2.9982	7.8425
3.8900	-2.6175	-2.9716	7.8407
3.9000	-2.6471	-2.9446	7.8389
3.9100	-2.6764	-2.9174	7.8372
3.9200	-2.7054	-2.8899	7.8354
3.9300	-2.7342	-2.8621	7.8337
3.9400	-2.7626	-2.8340	7.8320
3.9500	-2.7908	-2.8057	7.8303
3.9600	-2.8188	-2.7770	7.8286
3.9700	-2.8464	-2.7481	7.8269
3.9800	-2.8737	-2.7189	7.8253
3.9900	-2.9008	-2.6894	7.8237
4.0000	-2.9275	-2.6597	7.8221
4.0100	-2.9540	-2.6297	7.8205
4.0200	-2.9801	-2.5994	7.8189
4.0300	-3.0059	-2.5689	7.8173
4.0400	-3.0315	-2.5381	7.8158
4.0500	-3.0567	-2.5070	7.8143
4.0600	-3.0816	-2.4757	7.8128
4.0700	-3.1062	-2.4442	7.8113
4.0800	-3.1305	-2.4124	7.8098
4.0900	-3.1545	-2.3804	7.8084
4.1000	-3.1781	-2.3481	7.8070
4.1100	-3.2014	-2.3156	7.8056
4.1200	-3.2244	-2.2829	7.8042
4.1300	-3.2471	-2.2499	7.8028
4.1400	-3.2694	-2.2167	7.8015
4.1500	-3.2914	-2.1833	7.8002
4.1600	-3.3131	-2.1497	7.7988
4.1700	-3.3344	-2.1159	7.7976
4.1800	-3.3554	-2.0818	7.7963
4.1900	-3.3760	-2.0476	7.7951
4.2000	-3.3963	-2.0131	7.7938
4.2100	-3.4163	-1.9784	7.7926
4.2200	-3.4359	-1.9436	7.7915
4.2300	-3.4552	-1.9085	7.7903
4.2400	-3.4741	-1.8733	7.7892
4.2500	-3.4926	-1.8378	7.7880
4.2600	-3.5108	-1.8022	7.7869
4.2700	-3.5287	-1.7664	7.7859
4.2800	-3.5462	-1.7304	7.7848
4.2900	-3.5633	-1.6943	7.7838
4.3000	-3.5800	-1.6580	7.7828
4.3100	-3.5964	-1.6215	7.7818
4.3200	-3.6125	-1.5848	7.7808
4.3300	-3.6281	-1.5480	7.7799
4.3400	-3.6434	-1.5111	7.7790
4.3500	-3.6584	-1.4740	7.7781
4.3600	-3.6729	-1.4367	7.7772
4.3700	-3.6871	-1.3993	7.7763
4.3800	-3.7009	-1.3617	7.7755
4.3900	-3.7143	-1.3241	7.7747
4.4000	-3.7274	-1.2863	7.7739
4.4100	-3.7401	-1.2483	7.7731
4.4200	-3.7523	-1.2103	7.7724
4.4300	-3.7643	-1.1721	7.7717
4.4400	-3.7758	-1.1338	7.7710
4.4500	-3.7869	-1.0954	7.7703
4.4600	-3.7977	-1.0568	7.7697
4.4700	-3.8081	-1.0182	7.7690
4.4800	-3.8181	-0.9795	7.7684
4.4900	-3.8277	-0.9406	7.7679
4.5000	-3.8369	-0.9017	7.7673
4.5100	-3.8457	-0.8627	7.7668
4.5200	-3.8541	-0.8236	7.7663
4.5300	-3.8622	-0.7844	7.7658
4.5400	-3.8698	-0.7451	7.7653
4.5500	-3.8771	-0.7058	7.7649
4.5600	-3.8839	-0.6664	7.7645
4.5700	-3.8904	-0.6269	7.7641
4.5800	-3.8965	-0.5874	7.7637
4.5900	-3.9021	-0.5478	7.7634
4.6000	-3.9074	-0.5081	7.7631
4.6100	-3.9123	-0.4684	7.7628
4.6200	-3.9168	-0.4287	7.7625
4.6300	-3.9209	-0.3889	7.7623
4.6400	-3.9246	-0.3491	7.7620
4.6500	-3.9279	-0.3092	7.7618
4.6600	-3.9307	-0.2693	7.7617
4.6700	-3.9332	-0.2294	7.7615
4.6800	-3.9353	-0.1895	7.7614
4.6900	-3.9370	-0.1495	7.7613
4.7000	-3.9383	-0.1095	7.7612
4.7100	-3.9392	-0.0695	7.7612
4.7200	-3.9397	-0.0295	7.7611
4.7300	-3.9398	0.0105	7.7611
4.7400	-3.9395	0.0505	7.7611
4.7500	-3.9388	0.0905	7.7612
4.7600	-3.9377	0.1305	7.7612
4.7700	-3.9362	0.1704	7.7613
4.7800	-3.9343	0.2104	7.7614
4.7900	-3.9320	0.2503	7.7616
4.8000	-3.9293	0.2902	7.7618
4.8100	-3.9262	0.3301	7.7619
4.8200	-3.9227	0.3699	7.7621
4.8300	-3.9188	0.4098	7.7624
4.8400	-3.9145	0.4495	7.7626
4.8500	-3.9098	0.4893	7.7629
4.8600	-3.9047	0.5289	7.7632
4.8700	-3.8992	0.5685	7.7636
4.8800	-3.8933	0.6081	7.7639
4.8900	-3.8871	0.6476	7.7643
4.9000	-3.8804	0.6871	7.7647
4.9100	-3.8733	0.7264	7.7651
4.9200	-3.8659	0.7657	7.7656
4.9300	-3.8580	0.8049	7.7660
4.9400	-3.8498	0.8441	7.7665
4.9500	-3.8411	0.8831	7.7671
4.9600	-3.8321	0.9221	7.7676
4.9700	-3.8227	0.9610	7.7682
4.9800	-3.8129	0.9998	7.7688
4.9900	-3.8027	1.0384	7.7694
5.0000	-3.7921	1.0770	7.7700
5.0100	-3.7811	1.1155	7.7707
5.0200	-3.7698	1.1539	7.7714
5.0300	-3.7581	1.1921	7.7721
5.0400	-3.7460	1.2302	7.7728
5.0500	-3.7335	1.2682	7.7735
5.0600	-3.7206	1.3061	7.7743
5.0700	-3.7073	1.3438	7.7751
5.0800	-3.6937	1.3814	7.7759
5.0900	-3.6797	1.4189	7.7768
5.1000	-3.6653	1.4562	7.7776
5.1100	-3.6506	1.4934	7.7785
5.1200	-3.6355	1.5304	7.7794
5.1300	-3.6200	1.5673	7.7804
5.1400	-3.6041	1.6041	7.7813
5.1500	-3.5879	1.6406	7.7823
5.1600	-3.5713	1.6770	7.7833
5.1700	-3.5544	1.7132	7.7843
5.1800	-3.5370	1.7493	7.7854
5.1900	-3.5194	1.7852	7.7864
5.2000	-3.5013	1.8209	7.7875
5.2100	-3.4830	1.8564	7.7886
5.2200	-3.4642	1.8918	7.7898
5.2300	-3.4451	1.9269	7.7909
5.2400	-3.4257	1.9619	7.7921
5.2500	-3.4059	1.9966	7.7933
5.2600	-3.3857	2.0312	7.7945
5.2700	-3.3653	2.0655	7.7957
5.2800	-3.3444	2.0997	7.7970
5.2900	-3.3233	2.1336	7.7983
5.3000	-3.3018	2.1674	7.7995
5.3100	-3.2799	2.2009	7.8009
5.3200	-3.2578	2.2342	7.8022
5.3300	-3.2352	2.2672	7.8036
5.3400	-3.2124	2.3001	7.8049
5.3500	-3.1892	2.3327	7.8063
5.3600	-3.1658	2.3651	7.8077
5.3700	-3.1419	2.3972	7.8092
5.3800	-3.1178	2.4291	7.8106
5.3900	-3.0934	2.4608	7.8121
5.4000	-3.0686	2.4922	7.8136
5.4100	-3.0435	2.5233	7.8151
5.4200	-3.0181	2.5542	7.8166
5.4300	-2.9924	2.5849	7.8182
5.4400	-2.9664	2.6153	7.8197
5.4500	-2.9401	2.6454	7.8213
5.4600	-2.9135	2.6753	7.8229
5.4700	-2.8866	2.7049	7.8246
5.4800	-2.8594	2.7342	7.8262
5.4900	-2.8319	2.7633	7.8278
5.5000	-2.8042	2.7921	7.8295
5.5100	-2.7761	2.8206	7.8312
5.5200	-2.7478	2.8488	7.8329
5.5300	-2.7191	2.8767	7.8346
5.5400	-2.6902	2.9044	7.8364
5.5500	-2.6610	2.9317	7.8381
5.5600	-2.6316	2.9588	7.8399
5.5700	-2.6019	2.9856	7.8417
5.5800	-2.5719	3.0121	7.8435
5.5900	-2.5416	3.0382	7.8453
5.6000	-2.5111	3.0641	7.8472
5.6100	-2.4803	3.0896	7.8490
5.6200	-2.4493	3.1149	7.8509
5.6300	-2.4181	3.1398	7.8528
5.6400	-2.3865	3.1645	7.8547
5.6500	-2.3548	3.1888	7.8566
5.6600	-2.3228	3.2128	7.8585
5.6700	-2.2905	3.2364	7.8605
5.6800	-2.2580	3.2598	7.8624
5.6900	-2.2253	3.2828	7.8644
5.7000	-2.1924	3.3055	7.8664
5.7100	-2.1592	3.3278	7.8684
5.7200	-2.1258	3.3499	7.8704
5.7300	-2.0922	3.3716	7.8724
5.7400	-2.0584	3.3929	7.8744
5.7500	-2.0244	3.4139	7.8765
5.7600	-1.9901	3.4346	7.8785
5.7700	-1.9557	3.4549	7.8806
5.7800	-1.9210	3.4749	7.8827
5.7900	-1.8862	3.4946	7.8848
5.8000	-1.8511	3.5139	7.8869
5.8100	-1.8159	3.5328	7.8890
5.8200	-1.7805	3.5514	7.8912
5.8300	-1.7449	3.5696	7.8933
5.8400	-1.7091	3.5875	7.8955
5.8500	-1.6731	3.6050	7.8976
5.8600	-1.6370	3.6221	7.8998
5.8700	-1.6007	3.6389	7.9020
5.8800	-1.5642	3.6554	7.9042
5.8900	-1.5276	3.6714	7.9064
5.9000	-1.4908	3.6871	7.9086
5.9100	-1.4538	3.7024	7.9108
5.9200	-1.4167	3.7174	7.9131
5.9300	-1.3795	3.7320	7.9153
5.9400	-1.3421	3.7462	7.9176
5.9500	-1.3046	3.7600	7.9198
5.9600	-1.2669	3.7735	7.9221
5.9700	-1.2291	3.7866	7.9244
5.9800	-1.1912	3.7993	7.9267
5.9900	-1.1531	3.8116	7.9290
6.0000	-1.1149	3.8235	7.9313
6.0100	-1.0766	3.8351	7.9336
6.0200	-1.0382	3.8463	7.9359
6.0300	-0.9997	3.8571	7.9382
6.0400	-0.9611	3.8675	7.9405
6.0500	-0.9224	3.8775	7.9428
6.0600	-0.8836	3.8871	7.9452
6.0700	-0.8446	3.8964	7.9475
6.0800	-0.8056	3.9052	7.9499
6.0900	-0.7665	3.9137	7.9522
6.1000	-0.7274	3.9218	7.9546
6.1100	-0.6881	3.9294	7.9570
6.1200	-0.6488	3.9367	7.9593
6.1300	-0.6094	3.9436	7.9617
6.1400	-0.5699	3.9501	7.9641
6.1500	-0.5304	3.9562	7.9665
6.1600	-0.4908	3.9619	7.9688
6.1700	-0.4511	3.9672	7.9712
6.1800	-0.4114	3.9721	7.9736
6.1900	-0.3717	3.9767	7.9760
6.2000	-0.3319	3.9808	7.9784
6.2100	-0.2921	3.9845	7.9808
6.2200	-0.2522	3.9878	7.9832
6.2300	-0.2123	3.9908	7.9856
6.2400	-0.1724	3.9933	7.9880
6.2500	-0.1325	3.9954	7.9904
6.2600	-0.0925	3.9971	7.9928
6.2700	-0.0525	3.9985	7.9952
6.2800	-0.0125	3.9994	7.9976
6.2900	0.0275	3.9999	8.0000
6.3000	0.0675	4.0000	8.0024
6.3100	0.1075	3.9998	8.0049
6.3200	0.1475	3.9991	8.0073
6.3300	0.1874	3.9980	8.0097
6.3400	0.2274	3.9966	8.0121
6.3500	0.2674	3.9947	8.0145
6.3600	0.3073	3.9924	8.0169
6.3700	0.3472	3.9897	8.0193
6.3800	0.3871	3.9867	8.0217
6.3900	0.4270	3.9832	8.0241
6.4000	0.4668	3.9793	8.0265
6.4100	0.5065	3.9751	8.0289
6.4200	0.5463	3.9704	8.0313
6.4300	0.5859	3.9653	8.0337
6.4400	0.6256	3.9599	8.0361
6.4500	0.6651	3.9540	8.0384
6.4600	0.7046	3.9478	8.0408
6.4700	0.7441	3.9412	8.0432
6.4800	0.7835	3.9341	8.0456
6.4900	0.8228	3.9267	8.0479
6.5000	0.8620	3.9189	8.0503
6.5100	0.9012	3.9107	8.0526
6.5200	0.9402	3.9020	8.0550
6.5300	0.9792	3.8931	8.0573
6.5400	1.0181	3.8837	8.0597
6.5500	1.0569	3.8739	8.0620
6.5600	1.0955	3.8637	8.0643
6.5700	1.1341	3.8532	8.0667
6.5800	1.1726	3.8423	8.0690
6.5900	1.2110	3.8309	8.0713
6.6000	1.2492	3.8192	8.0736
6.6100	1.2874	3.8072	8.0759
6.6200	1.3254	3.7947	8.0782
6.6300	1.3633	3.7819	8.0805
6.6400	1.4010	3.7686	8.0827
6.6500	1.4386	3.7550	8.0850
6.6600	1.4761	3.7411	8.0873
6.6700	1.5134	3.7267	8.0895
6.6800	1.5506	3.7120	8.0917
6.6900	1.5877	3.6969	8.0940
6.7000	1.6246	3.6815	8.0962
6.7100	1.6613	3.6656	8.0984
6.7200	1.6979	3.6494	8.1006
6.7300	1.7343	3.6329	8.1028
6.7400	1.7705	3.6160	8.1050
6.7500	1.8066	3.5987	8.1072
6.7600	1.8425	3.5810	8.1093
6.7700	1.8782	3.5630	8.1115
6.7800	1.9138	3.5447	8.1136
6.7900	1.9491	3.5260	8.1157
6.8000	1.9843	3.5069	8.1178
6.8100	2.0193	3.4875	8.1200
6.8200	2.0540	3.4677	8.1220
6.8300	2.0886	3.4476	8.1241
6.8400	2.1230	3.4271	8.1262
6.8500	2.1572	3.4063	8.1283
6.8600	2.1911	3.3852	8.1303
6.8700	2.2249	3.3637	8.1323
6.8800	2.2584	3.3419	8.1343
6.8900	2.2917	3.3198	8.1363
6.9000	2.3248	3.2973	8.1383
6.9100	2.3576	3.2745	8.1403
6.9200	2.3903	3.2513	8.1423
6.9300	2.4227	3.2279	8.1442
6.9400	2.4548	3.2041	8.1462
6.9500	2.4867	3.1800	8.1481
6.9600	2.5184	3.1556	8.1500
6.9700	2.5499	3.1308	8.1519
6.9800	2.5810	3.1058	8.1538
6.9900	2.6120	3.0804	8.1556
7.0000	2.6426	3.0547	8.1575
7.0100	2.6731	3.0288	8.1593
7.0200	2.7032	3.0025	8.1611
7.0300	2.7331	2.9759	8.1629
7.0400	2.7627	2.9490	8.1647
7.0500	2.7921	2.9218	8.1665
7.0600	2.8212	2.8944	8.1682
7.0700	2.8500	2.8666	8.1700
7.0800	2.8785	2.8386	8.1717
7.0900	2.9067	2.8103	8.1734
7.1000	2.9347	2.7817	8.1751
7.1100	2.9624	2.7528	8.1767
7.1200	2.9898	2.7236	8.1784
7.1300	3.0168	2.6942	8.1800
7.1400	3.0436	2.6645	8.1816
7.1500	3.0701	2.6345	8.1832
7.1600	3.0963	2.6043	8.1848
7.1700	3.1222	2.5738	8.1863
7.1800	3.1478	2.5430	8.1879
7.1900	3.1731	2.5120	8.1894
7.2000	3.1980	2.4808	8.1909
7.2100	3.2227	2.4493	8.1924
7.2200	3.2470	2.4175	8.1938
7.2300	3.2710	2.3856	8.1953
7.2400	3.2947	2.3533	8.1967
7.2500	3.3181	2.3209	8.1981
7.2600	3.3412	2.2882	8.1995
7.2700	3.3639	2.2552	8.2009
7.2800	3.3863	2.2221	8.2022
7.2900	3.4083	2.1887	8.2036
7.3000	3.4300	2.1551	8.2049
7.3100	3.4514	2.1213	8.2062
7.3200	3.4725	2.0873	8.2074
7.3300	3.4932	2.0531	8.2087
7.3400	3.5135	2.0187	8.2099
7.3500	3.5335	1.9840	8.2111
7.3600	3.5532	1.9492	8.2123
7.3700	3.5725	1.9142	8.2134
7.3800	3.5915	1.8789	8.2146
7.3900	3.6101	1.8435	8.2157
7.4000	3.6283	1.8080	8.2168
7.4100	3.6462	1.7722	8.2179
7.4200	3.6638	1.7362	8.2189
7.4300	3.6810	1.7001	8.2200
7.4400	3.6978	1.6638	8.2210
7.4500	3.7142	1.6274	8.2220
7.4600	3.7303	1.5907	8.2229
7.4700	3.7461	1.5540	8.2239
7.4800	3.7614	1.5170	8.2248
7.4900	3.7764	1.4799	8.2257
7.5000	3.7910	1.4427	8.2266
7.5100	3.8053	1.4053	8.2274
7.5200	3.8191	1.3678	8.2283
7.5300	3.8326	1.3301	8.2291
7.5400	3.8457	1.2924	8.2299
7.5500	3.8585	1.2544	8.2306
7.5600	3.8708	1.2164	8.2314
7.5700	3.8828	1.1782	8.2321
7.5800	3.8944	1.1399	8.2328
7.5900	3.9056	1.1015	8.2335
7.6000	3.9164	1.0630	8.2341
7.6100	3.9268	1.0244	8.2348
7.6200	3.9369	0.9857	8.2354
7.6300	3.9466	0.9469	8.2360
7.6400	3.9558	0.9080	8.2365
7.6500	3.9647	0.8690	8.2370
7.6600	3.9732	0.8299	8.2376
7.6700	3.9813	0.7907	8.2380
7.6800	3.9890	0.7515	8.2385
7.6900	3.9963	0.7121	8.2389
7.7000	4.0033	0.6728	8.2394
7.7100	4.0098	0.6333	8.2398
7.7200	4.0159	0.5938	8.2401
7.7300	4.0217	0.5542	8.2405
7.7400	4.0270	0.5145	8.2408
7.7500	4.0320	0.4748	8.2411
7.7600	4.0365	0.4351	8.2414
7.7700	4.0407	0.3953	8.2416
7.7800	4.0444	0.3555	8.2418
7.7900	4.0478	0.3156	8.2420
7.8000	4.0507	0.2757	8.2422
7.8100	4.0533	0.2358	8.2424
7.8200	4.0554	0.1959	8.2425
7.8300	4.0572	0.1559	8.2426
7.8400	4.0586	0.1159	8.2427
7.8500	4.0595	0.0760	8.2428
7.8600	4.0601	0.0360	8.2428
7.8700	4.0602	-0.0040	8.2428
7.8800	4.0600	-0.0440	8.2428
7.8900	4.0594	-0.0840	8.2427
7.9000	4.0583	-0.1240	8.2427
7.9100	4.0569	-0.1640	8.2426
7.9200	4.0550	-0.2040	8.2425
7.9300	4.0528	-0.2439	8.2423
7.9400	4.0502	-0.2838	8.2422
7.9500	4.0471	-0.3237	8.2420
7.9600	4.0437	-0.3635	8.2418
7.9700	4.0399	-0.4034	8.2416
7.9800	4.0356	-0.4431	8.2413
7.9900	4.0310	-0.4829	8.2410
8.0000	4.0260	-0.5225	8.2407
8.0100	4.0205	-0.5622	8.2404
8.0200	4.0147	-0.6017	8.2401
8.0300	4.0085	-0.6413	8.2397
8.0400	4.0019	-0.6807	8.2393
8.0500	3.9949	-0.7201	8.2389
8.0600	3.9875	-0.7594	8.2384
8.0700	3.9797	-0.7986	8.2379
8.0800	3.9715	-0.8378	8.2375
8.0900	3.9630	-0.8769	8.2369
8.1000	3.9540	-0.9158	8.2364
8.1100	3.9446	-0.9547	8.2358
8.1200	3.9349	-0.9935	8.2352
8.1300	3.9248	-1.0322	8.2346
8.1400	3.9142	-1.0708	8.2340
8.1500	3.9033	-1.1093	8.2333
8.1600	3.8921	-1.1477	8.2327
8.1700	3.8804	-1.1859	8.2320
8.1800	3.8683	-1.2241	8.2312
8.1900	3.8559	-1.2621	8.2305
8.2000	3.8431	-1.3000	8.2297
8.2100	3.8299	-1.3378	8.2289
8.2200	3.8163	-1.3754	8.2281
8.2300	3.8024	-1.4129	8.2273
8.2400	3.7881	-1.4502	8.2264
8.2500	3.7734	-1.4874	8.2255
8.2600	3.7583	-1.5245	8.2246
8.2700	3.7429	-1.5614	8.2237
8.2800	3.7271	-1.5981	8.2227
8.2900	3.7110	-1.6347	8.2218
8.3000	3.6944	-1.6712	8.2208
8.3100	3.6775	-1.7074	8.2198
8.3200	3.6603	-1.7435	8.2187
8.3300	3.6427	-1.7794	8.2177
8.3400	3.6247	-1.8152	8.2166
8.3500	3.6064	-1.8507	8.2155
8.3600	3.5877	-1.8861	8.2143
8.3700	3.5686	-1.9213	8.2132
8.3800	3.5493	-1.9562	8.2120
8.3900	3.5295	-1.9910	8.2108
8.4000	3.5094	-2.0256	8.2096
8.4100	3.4890	-2.0600	8.2084
8.4200	3.4682	-2.0942	8.2071
8.4300	3.4471	-2.1282	8.2059
8.4400	3.4257	-2.1619	8.2046
8.4500	3.4039	-2.1955	8.2033
8.4600	3.3818	-2.2288	8.2019
8.4700	3.3593	-2.2619	8.2006
8.4800	3.3365	-2.2948	8.1992
8.4900	3.3134	-2.3274	8.1978
8.5000	3.2900	-2.3598	8.1964
8.5100	3.2662	-2.3920	8.1950
8.5200	3.2421	-2.4240	8.1935
8.5300	3.2177	-2.4557	8.1921
8.5400	3.1930	-2.4871	8.1906
8.5500	3.1680	-2.5183	8.1891
8.5600	3.1427	-2.5493	8.1875
8.5700	3.1170	-2.5800	8.1860
8.5800	3.0911	-2.6104	8.1844
8.5900	3.0648	-2.6406	8.1829
8.6000	3.0383	-2.6705	8.1813
8.6100	3.0114	-2.7001	8.1796
8.6200	2.9843	-2.7295	8.1780
8.6300	2.9568	-2.7586	8.1763
8.6400	2.9291	-2.7874	8.1747
8.6500	2.9011	-2.8160	8.1730
8.6600	2.8728	-2.8443	8.1713
8.6700	2.8442	-2.8722	8.1696
8.6800	2.8153	-2.8999	8.1678
8.6900	2.7862	-2.9273	8.1661
8.7000	2.7568	-2.9545	8.1643
8.7100	2.7271	-2.9813	8.1625
8.7200	2.6972	-3.0078	8.1607
8.7300	2.6669	-3.0340	8.1589
8.7400	2.6365	-3.0599	8.1570
8.7500	2.6057	-3.0855	8.1552
8.7600	2.5748	-3.1108	8.1533
8.7700	2.5435	-3.1358	8.1514
8.7800	2.5120	-3.1605	8.1496
8.7900	2.4803	-3.1849	8.1476
8.8000	2.4484	-3.2089	8.1457
8.8100	2.4161	-3.2326	8.1438
8.8200	2.3837	-3.2560	8.1418
8.8300	2.3510	-3.2791	8.1398
8.8400	2.3181	-3.3018	8.1379
8.8500	2.2850	-3.3242	8.1359
8.8600	2.2516	-3.3463	8.1339
8.8700	2.2181	-3.3681	8.1318
8.8800	2.1843	-3.3895	8.1298
8.8900	2.1503	-3.4105	8.1278
8.9000	2.1161	-3.4313	8.1257
8.9100	2.0817	-3.4517	8.1236
8.9200	2.0470	-3.4717	8.1215
8.9300	2.0122	-3.4914	8.1194
8.9400	1.9772	-3.5107	8.1173
8.9500	1.9420	-3.5297	8.1152
8.9600	1.9066	-3.5484	8.1131
8.9700	1.8710	-3.5667	8.1109
8.9800	1.8353	-3.5846	8.1088
8.9900	1.7994	-3.6022	8.1066
9.0000	1.7632	-3.6194	8.1044
9.0100	1.7270	-3.6362	8.1022
9.0200	1.6905	-3.6527	8.1000
9.0300	1.6539	-3.6688	8.0978
9.0400	1.6171	-3.6846	8.0956
9.0500	1.5802	-3.7000	8.0934
9.0600	1.5432	-3.7150	8.0912
9.0700	1.5059	-3.7296	8.0889
9.0800	1.4686	-3.7439	8.0867
9.0900	1.4311	-3.7578	8.0844
9.1000	1.3934	-3.7713	8.0821
9.1100	1.3556	-3.7844	8.0799
9.1200	1.3177	-3.7972	8.0776
9.1300	1.2797	-3.8096	8.0753
9.1400	1.2415	-3.8216	8.0730
9.1500	1.2033	-3.8332	8.0707
9.1600	1.1649	-3.8444	8.0684
9.1700	1.1264	-3.8553	8.0660
9.1800	1.0878	-3.8658	8.0637
9.1900	1.0491	-3.8759	8.0614
9.2000	1.0102	-3.8855	8.0590
9.2100	0.9713	-3.8949	8.0567
9.2200	0.9324	-3.9038	8.0543
9.2300	0.8933	-3.9123	8.0520
9.2400	0.8541	-3.9204	8.0496
9.2500	0.8149	-3.9282	8.0473
9.2600	0.7755	-3.9355	8.0449
9.2700	0.7362	-3.9425	8.0425
9.2800	0.6967	-3.9490	8.0401
9.2900	0.6572	-3.9552	8.0377
9.3000	0.6176	-3.9610	8.0354
9.3100	0.5780	-3.9663	8.0330
9.3200	0.5383	-3.9713	8.0306
9.3300	0.4985	-3.9759	8.0282
9.3400	0.4588	-3.9801	8.0258
9.3500	0.4189	-3.9839	8.0234
9.3600	0.3791	-3.9873	8.0210
9.3700	0.3392	-3.9902	8.0186
9.3800	0.2993	-3.9928	8.0162
9.3900	0.2593	-3.9950	8.0138
9.4000	0.2194	-3.9968	8.0113
9.4100	0.1794	-3.9982	8.0089
9.4200	0.1394	-3.9992	8.0065
9.4300	0.0994	-3.9998	8.0041
9.4400	0.0594	-4.0000	8.0017
9.4500	0.0194	-3.9998	7.9993
9.4600	-0.0206	-3.9992	7.9969
9.4700	-0.0606	-3.9982	7.9945
9.4800	-0.1005	-3.9967	7.9921
9.4900	-0.1405	-3.9949	7.9896
9.5000	-0.1804	-3.9927	7.9872
9.5100	-0.2203	-3.9901	7.9848
9.5200	-0.2602	-3.9871	7.9824
9.5300	-0.3001	-3.9837	7.9800
9.5400	-0.3399	-3.9799	7.9776
9.5500	-0.3797	-3.9757	7.9752
9.5600	-0.4194	-3.9711	7.9728
9.5700	-0.4591	-3.9661	7.9704
9.5800	-0.4987	-3.9607	7.9680
9.5900	-0.5383	-3.9549	7.9656
9.6000	-0.5778	-3.9488	7.9633
9.6100	-0.6173	-3.9422	7.9609
9.6200	-0.6567	-3.9352	7.9585
9.6300	-0.6960	-3.9278	7.9561
9.6400	-0.7352	-3.9201	7.9538
9.6500	-0.7744	-3.9119	7.9514
9.6600	-0.8135	-3.9034	7.9490
9.6700	-0.8524	-3.8944	7.9467
9.6800	-0.8913	-3.8851	7.9443
9.6900	-0.9301	-3.8754	7.9420
9.7000	-0.9689	-3.8653	7.9397
9.7100	-1.0075	-3.8548	7.9373
9.7200	-1.0459	-3.8440	7.9350
9.7300	-1.0843	-3.8327	7.9327
9.7400	-1.1226	-3.8211	7.9304
9.7500	-1.1608	-3.8090	7.9281
9.7600	-1.1988	-3.7966	7.9258
9.7700	-1.2367	-3.7839	7.9235
9.7800	-1.2745	-3.7707	7.9212
9.7900	-1.3121	-3.7572	7.9190
9.8000	-1.3496	-3.7433	7.9167
9.8100	-1.3870	-3.7290	7.9144
9.8200	-1.4242	-3.7143	7.9122
9.8300	-1.4612	-3.6993	7.9100
9.8400	-1.4982	-3.6839	7.9077
9.8500	-1.5349	-3.6681	7.9055
9.8600	-1.5715	-3.6520	7.9033
9.8700	-1.6080	-3.6355	7.9011
9.8800	-1.6442	-3.6186	7.8989
9.8900	-1.6803	-3.6014	7.8967
9.9000	-1.7163	-3.5838	7.8946
9.9100	-1.7520	-3.5659	7.8924
9.9200	-1.7876	-3.5476	7.8903
9.9300	-1.8229	-3.5289	7.8881
9.9400	-1.8581	-3.5099	7.8860
9.9500	-1.8931	-3.4905	7.8839
9.9600	-1.9280	-3.4708	7.8818
9.9700	-1.9626	-3.4508	7.8797
9.9800	-1.9970	-3.4304	7.8776
9.9900	-2.0312	-3.4096	7.8756
10.0000	-2.0652	-3.3885	7.8735
10.0100	-2.0989	-3.3671	7.8715
10.0200	-2.1325	-3.3453	7.8694
10.0300	-2.1658	-3.3232	7.8674
10.0400	-2.1990	-3.3008	7.8654
10.0500	-2.2319	-3.2781	7.8634
10.0600	-2.2645	-3.2550	7.8615
10.0700	-2.2970	-3.2316	7.8595
10.0800	-2.3291	-3.2078	7.8576
10.0900	-2.3611	-3.1838	7.8556
10.1000	-2.3928	-3.1594	7.8537
10.1100	-2.4243	-3.1347	7.8518
10.1200	-2.4555	-3.1097	7.8499
10.1300	-2.4865	-3.0844	7.8481
10.1400	-2.5172	-3.0588	7.8462
10.1500	-2.5477	-3.0328	7.8444
10.1600	-2.5779	-3.0066	7.8425
10.1700	-2.6078	-2.9801	7.8407
10.1800	-2.6375	-2.9533	7.8389
10.1900	-2.6669	-2.9261	7.8372
10.2000	-2.6960	-2.8987	7.8354
10.2100	-2.7248	-2.8710	7.8337
10.2200	-2.7534	-2.8430	7.8319
10.2300	-2.7817	-2.8147	7.8302
10.2400	-2.8097	-2.7862	7.8285
10.2500	-2.8374	-2.7573	7.8269
10.2600	-2.8648	-2.7282	7.8252
10.2700	-2.8920	-2.6988	7.8236
10.2800	-2.9188	-2.6692	7.8220
10.2900	-2.9454	-2.6392	7.8204
10.3000	-2.9716	-2.6091	7.8188
10.3100	-2.9975	-2.5786	7.8172
10.3200	-3.0232	-2.5479	7.8157
10.3300	-3.0485	-2.5169	7.8141