# Time	Position	Velocity	Total Energy
50.0000	-2.0990	-7.7197	32.0000
49.9990	-2.1067	-7.7176	32.0000
49.9980	-2.1144	-7.7155	32.0000
49.9970	-2.1221	-7.7134	32.0000
49.9960	-2.1298	-7.7113	32.0000
49.9950	-2.1376	-7.7091	32.0000
49.9940	-2.1453	-7.7070	32.0000
49.9930	-2.1530	-7.7049	32.0000
49.9920	-2.1607	-7.7027	32.0000
49.9910	-2.1684	-7.7005	32.0000
49.9900	-2.1761	-7.6984	32.0000
49.9890	-2.1838	-7.6962	32.0000
49.9880	-2.1915	-7.6940	32.0000
49.9870	-2.1992	-7.6918	32.0000
49.9860	-2.2069	-7.6896	32.0000
49.9850	-2.2145	-7.6874	32.0000
49.9840	-2.2222	-7.6852	32.0000
49.9830	-2.2299	-7.6829	32.0000
49.9820	-2.2376	-7.6807	32.0000
49.9810	-2.2453	-7.6785	32.0000
49.9800	-2.2529	-7.6762	32.0000
49.9790	-2.2606	-7.6740	32.0000
49.9780	-2.2683	-7.6717	32.0000
49.9770	-2.2760	-7.6694	32.0000
49.9760	-2.2836	-7.6671	32.0000
49.9750	-2.2913	-7.6649	32.0000
49.9740	-2.2990	-7.6626	32.0000
49.9730	-2.3066	-7.6603	32.0000
49.9720	-2.3143	-7.6579	32.0000
49.9710	-2.3219	-7.6556	32.0000
49.9700	-2.3296	-7.6533	32.0000
49.9690	-2.3372	-7.6510	32.0000
49.9680	-2.3449	-7.6486	32.0000
49.9670	-2.3525	-7.6463	32.0000
49.9660	-2.3602	-7.6439	32.0000
49.9650	-2.3678	-7.6416	32.0000
49.9640	-2.3755	-7.6392	32.0000
49.9630	-2.3831	-7.6368	32.0000
49.9620	-2.3907	-7.6344	32.0000
49.9610	-2.3984	-7.6320	32.0000
49.9600	-2.4060	-7.6296	32.0000
49.9590	-2.4136	-7.6272	32.0000
49.9580	-2.4213	-7.6248	32.0000
49.9570	-2.4289	-7.6224	32.0000
49.9560	-2.4365	-7.6199	32.0000
49.9550	-2.4441	-7.6175	32.0000
49.9540	-2.4517	-7.6150	32.0000
49.9530	-2.4594	-7.6126	32.0000
49.9520	-2.4670	-7.6101	32.0000
49.9510	-2.4746	-7.6077	32.0000
49.9500	-2.4822	-7.6052	32.0000
49.9490	-2.4898	-7.6027	32.0000
49.9480	-2.4974	-7.6002	32.0000
49.9470	-2.5050	-7.5977	32.0000
49.9460	-2.5126	-7.5952	32.0000
49.9450	-2.5202	-7.5927	32.0000
49.9440	-2.5278	-7.5901	32.0000
49.9430	-2.5354	-7.5876	32.0000
49.9420	-2.5429	-7.5851	32.0000
49.9410	-2.5505	-7.5825	32.0000
49.9400	-2.5581	-7.5800	32.0000
49.9390	-2.5657	-7.5774	32.0000
49.9380	-2.5733	-7.5748	32.0000
49.9370	-2.5808	-7.5723	32.0000
49.9360	-2.5884	-7.5697	32.0000
49.9350	-2.5960	-7.5671	32.0000
49.9340	-2.6035	-7.5645	32.0000
49.9330	-2.6111	-7.5619	32.0000
49.9320	-2.6187	-7.5593	32.0000
49.9310	-2.6262	-7.5566	32.0000
49.9300	-2.6338	-7.5540	32.0000
49.9290	-2.6413	-7.5514	32.0000
49.9280	-2.6489	-7.5487	32.0000
49.9270	-2.6564	-7.5461	32.0000
49.9260	-2.6640	-7.5434	32.0000
49.9250	-2.6715	-7.5408	32.0000
49.9240	-2.6791	-7.5381	32.0000
49.9230	-2.6866	-7.5354	32.0000
49.9220	-2.6941	-7.5327	32.0000
49.9210	-2.7017	-7.5300	32.0000
49.9200	-2.7092	-7.5273	32.0000
49.9190	-2.7167	-7.5246	32.0000
49.9180	-2.7242	-7.5219	32.0000
49.9170	-2.7318	-7.5191	32.0000
49.9160	-2.7393	-7.5164	32.0000
49.9150	-2.7468	-7.5137	32.0000
49.9140	-2.7543	-7.5109	32.0000
49.9130	-2.7618	-7.5082	32.0000
49.9120	-2.7693	-7.5054	32.0000
49.9110	-2.7768	-7.5026	32.0000
49.9100	-2.7843	-7.4998	32.0000
49.9090	-2.7918	-7.4970	32.0000
49.9080	-2.7993	-7.4943	32.0000
49.9070	-2.8068	-7.4914	32.0000
49.9060	-2.8143	-7.4886	32.0000
49.9050	-2.8218	-7.4858	32.0000
49.9040	-2.8293	-7.4830	32.0000
49.9030	-2.8368	-7.4802	32.0000
49.9020	-2.8442	-7.4773	32.0000
49.9010	-2.8517	-7.4745	32.0000
49.9000	-2.8592	-7.4716	32.0000
49.8990	-2.8667	-7.4688	32.0000
49.8980	-2.8741	-7.4659	32.0000
49.8970	-2.8816	-7.4630	32.0000
49.8960	-2.8890	-7.4601	32.0000
49.8950	-2.8965	-7.4572	32.0000
49.8940	-2.9040	-7.4543	32.0000
49.8930	-2.9114	-7.4514	32.0000
49.8920	-2.9189	-7.4485	32.0000
49.8910	-2.9263	-7.4456	32.0000
49.8900	-2.9338	-7.4427	32.0000
49.8890	-2.9412	-7.4397	32.0000
49.8880	-2.9486	-7.4368	32.0000
49.8870	-2.9561	-7.4338	32.0000
49.8860	-2.9635	-7.4309	32.0000
49.8850	-2.9709	-7.4279	32.0000
49.8840	-2.9784	-7.4249	32.0000
49.8830	-2.9858	-7.4219	32.0000
49.8820	-2.9932	-7.4189	32.0000
49.8810	-3.0006	-7.4159	32.0000
49.8800	-3.0080	-7.4129	32.0000
49.8790	-3.0154	-7.4099	32.0000
49.8780	-3.0229	-7.4069	32.0000
49.8770	-3.0303	-7.4039	32.0000
49.8760	-3.0377	-7.4009	32.0000
49.8750	-3.0451	-7.3978	32.0000
49.8740	-3.0525	-7.3948	32.0000
49.8730	-3.0599	-7.3917	32.0000
49.8720	-3.0672	-7.3886	32.0000
49.8710	-3.0746	-7.3856	32.0000
49.8700	-3.0820	-7.3825	32.0000
49.8690	-3.0894	-7.3794	32.0000
49.8680	-3.0968	-7.3763	32.0000
49.8670	-3.1041	-7.3732	32.0000
49.8660	-3.1115	-7.3701	32.0000
49.8650	-3.1189	-7.3670	32.0000
49.8640	-3.1263	-7.3639	32.0000
49.8630	-3.1336	-7.3607	32.0000
49.8620	-3.1410	-7.3576	32.0000
49.8610	-3.1483	-7.3545	32.0000
49.8600	-3.1557	-7.3513	32.0000
49.8590	-3.1630	-7.3481	32.0000
49.8580	-3.1704	-7.3450	32.0000
49.8570	-3.1777	-7.3418	32.0000
49.8560	-3.1851	-7.3386	32.0000
49.8550	-3.1924	-7.3354	32.0000
49.8540	-3.1997	-7.3322	32.0000
49.8530	-3.2071	-7.3290	32.0000
49.8520	-3.2144	-7.3258	32.0000
49.8510	-3.2217	-7.3226	32.0000
49.8500	-3.2290	-7.3194	32.0000
49.8490	-3.2364	-7.3161	32.0000
49.8480	-3.2437	-7.3129	32.0000
49.8470	-3.2510	-7.3097	32.0000
49.8460	-3.2583	-7.3064	32.0000
49.8450	-3.2656	-7.3031	32.0000
49.8440	-3.2729	-7.2999	32.0000
49.8430	-3.2802	-7.2966	32.0000
49.8420	-3.2875	-7.2933	32.0000
49.8410	-3.2948	-7.2900	32.0000
49.8400	-3.3021	-7.2867	32.0000
49.8390	-3.3094	-7.2834	32.0000
49.8380	-3.3166	-7.2801	32.0000
49.8370	-3.3239	-7.2768	32.0000
49.8360	-3.3312	-7.2735	32.0000
49.8350	-3.3385	-7.2701	32.0000
49.8340	-3.3457	-7.2668	32.0000
49.8330	-3.3530	-7.2634	32.0000
49.8320	-3.3603	-7.2601	32.0000
49.8310	-3.3675	-7.2567	32.0000
49.8300	-3.3748	-7.2533	32.0000
49.8290	-3.3820	-7.2500	32.0000
49.8280	-3.3893	-7.2466	32.0000
49.8270	-3.3965	-7.2432	32.0000
49.8260	-3.4038	-7.2398	32.0000
49.8250	-3.4110	-7.2364	32.0000
49.8240	-3.4182	-7.2330	32.0000
49.8230	-3.4255	-7.2295	32.0000
49.8220	-3.4327	-7.2261	32.0000
49.8210	-3.4399	-7.2227	32.0000
49.8200	-3.4471	-7.2192	32.0000
49.8190	-3.4543	-7.2158	32.0000
49.8180	-3.4616	-7.2123	32.0000
49.8170	-3.4688	-7.2089	32.0000
49.8160	-3.4760	-7.2054	32.0000
49.8150	-3.4832	-7.2019	32.0000
49.8140	-3.4904	-7.1984	32.0000
49.8130	-3.4976	-7.1949	32.0000
49.8120	-3.5048	-7.1914	32.0000
49.8110	-3.5120	-7.1879	32.0000
49.8100	-3.5192	-7.1844	32.0000
49.8090	-3.5263	-7.1809	32.0000
49.8080	-3.5335	-7.1773	32.0000
49.8070	-3.5407	-7.1738	32.0000
49.8060	-3.5479	-7.1703	32.0000
49.8050	-3.5550	-7.1667	32.0000
49.8040	-3.5622	-7.1632	32.0000
49.8030	-3.5694	-7.1596	32.0000
49.8020	-3.5765	-7.1560	32.0000
49.8010	-3.5837	-7.1524	32.0000
49.8000	-3.5908	-7.1488	32.0000
49.7990	-3.5980	-7.1453	32.0000
49.7980	-3.6051	-7.1417	32.0000
49.7970	-3.6122	-7.1380	32.0000
49.7960	-3.6194	-7.1344	32.0000
49.7950	-3.6265	-7.1308	32.0000
49.7940	-3.6336	-7.1272	32.0000
49.7930	-3.6408	-7.1235	32.0000
49.7920	-3.6479	-7.1199	32.0000
49.7910	-3.6550	-7.1162	32.0000
49.7900	-3.6621	-7.1126	32.0000
49.7890	-3.6692	-7.1089	32.0000
49.7880	-3.6763	-7.1052	32.0000
49.7870	-3.6834	-7.1016	32.0000
49.7860	-3.6905	-7.0979	32.0000
49.7850	-3.6976	-7.0942	32.0000
49.7840	-3.7047	-7.0905	32.0000
49.7830	-3.7118	-7.0868	32.0000
49.7820	-3.7189	-7.0831	32.0000
49.7810	-3.7260	-7.0793	32.0000
49.7800	-3.7331	-7.0756	32.0000
49.7790	-3.7401	-7.0719	32.0000
49.7780	-3.7472	-7.0681	32.0000
49.7770	-3.7543	-7.0644	32.0000
49.7760	-3.7613	-7.0606	32.0000
49.7750	-3.7684	-7.0569	32.0000
49.7740	-3.7755	-7.0531	32.0000
49.7730	-3.7825	-7.0493	32.0000
49.7720	-3.7896	-7.0455	32.0000
49.7710	-3.7966	-7.0417	32.0000
49.7700	-3.8036	-7.0379	32.0000
49.7690	-3.8107	-7.0341	32.0000
49.7680	-3.8177	-7.0303	32.0000
49.7670	-3.8247	-7.0265	32.0000
49.7660	-3.8318	-7.0227	32.0000
49.7650	-3.8388	-7.0188	32.0000
49.7640	-3.8458	-7.0150	32.0000
49.7630	-3.8528	-7.0111	32.0000
49.7620	-3.8598	-7.0073	32.0000
49.7610	-3.8668	-7.0034	32.0000
49.7600	-3.8738	-6.9995	32.0000
49.7590	-3.8808	-6.9957	32.0000
49.7580	-3.8878	-6.9918	32.0000
49.7570	-3.8948	-6.9879	32.0000
49.7560	-3.9018	-6.9840	32.0000
49.7550	-3.9088	-6.9801	32.0000
49.7540	-3.9158	-6.9762	32.0000
49.7530	-3.9227	-6.9722	32.0000
49.7520	-3.9297	-6.9683	32.0000
49.7510	-3.9367	-6.9644	32.0000
49.7500	-3.9436	-6.9604	32.0000
49.7490	-3.9506	-6.9565	32.0000
49.7480	-3.9575	-6.9525	32.0000
49.7470	-3.9645	-6.9486	32.0000
49.7460	-3.9714	-6.9446	32.0000
49.7450	-3.9784	-6.9406	32.0000
49.7440	-3.9853	-6.9367	32.0000
49.7430	-3.9922	-6.9327	32.0000
49.7420	-3.9992	-6.9287	32.0000
49.7410	-4.0061	-6.9247	32.0000
49.7400	-4.0130	-6.9207	32.0000
49.7390	-4.0199	-6.9166	32.0000
49.7380	-4.0269	-6.9126	32.0000
49.7370	-4.0338	-6.9086	32.0000
49.7360	-4.0407	-6.9046	32.0000
49.7350	-4.0476	-6.9005	32.0000
49.7340	-4.0545	-6.8965	32.0000
49.7330	-4.0614	-6.8924	32.0000
49.7320	-4.0683	-6.8883	32.0000
49.7310	-4.0752	-6.8843	32.0000
49.7300	-4.0820	-6.8802	32.0000
49.7290	-4.0889	-6.8761	32.0000
49.7280	-4.0958	-6.8720	32.0000
49.7270	-4.1027	-6.8679	32.0000
49.7260	-4.1095	-6.8638	32.0000
49.7250	-4.1164	-6.8597	32.0000
49.7240	-4.1232	-6.8556	32.0000
49.7230	-4.1301	-6.8514	32.0000
49.7220	-4.1369	-6.8473	32.0000
49.7210	-4.1438	-6.8432	32.0000
49.7200	-4.1506	-6.8390	32.0000
49.7190	-4.1575	-6.8349	32.0000
49.7180	-4.1643	-6.8307	32.0000
49.7170	-4.1711	-6.8265	32.0000
49.7160	-4.1780	-6.8224	32.0000
49.7150	-4.1848	-6.8182	32.0000
49.7140	-4.1916	-6.8140	32.0000
49.7130	-4.1984	-6.8098	32.0000
49.7120	-4.2052	-6.8056	32.0000
49.7110	-4.2120	-6.8014	32.0000
49.7100	-4.2188	-6.7972	32.0000
49.7090	-4.2256	-6.7930	32.0000
49.7080	-4.2324	-6.7887	32.0000
49.7070	-4.2392	-6.7845	32.0000
49.7060	-4.2460	-6.7802	32.0000
49.7050	-4.2527	-6.7760	32.0000
49.7040	-4.2595	-6.7717	32.0000
49.7030	-4.2663	-6.7675	32.0000
49.7020	-4.2731	-6.7632	32.0000
49.7010	-4.2798	-6.7589	32.0000
49.7000	-4.2866	-6.7547	32.0000
49.6990	-4.2933	-6.7504	32.0000
49.6980	-4.3001	-6.7461	32.0000
49.6970	-4.3068	-6.7418	32.0000
49.6960	-4.3136	-6.7375	32.0000
49.6950	-4.3203	-6.7331	32.0000
49.6940	-4.3270	-6.7288	32.0000
49.6930	-4.3337	-6.7245	32.0000
49.6920	-4.3405	-6.7201	32.0000
49.6910	-4.3472	-6.7158	32.0000
49.6900	-4.3539	-6.7114	32.0000
49.6890	-4.3606	-6.7071	32.0000
49.6880	-4.3673	-6.7027	32.0000
49.6870	-4.3740	-6.6984	32.0000
49.6860	-4.3807	-6.6940	32.0000
49.6850	-4.3874	-6.6896	32.0000
49.6840	-4.3941	-6.6852	32.0000
49.6830	-4.4008	-6.6808	32.0000
49.6820	-4.4075	-6.6764	32.0000
49.6810	-4.4141	-6.6720	32.0000
49.6800	-4.4208	-6.6676	32.0000
49.6790	-4.4275	-6.6631	32.0000
49.6780	-4.4341	-6.6587	32.0000
49.6770	-4.4408	-6.6543	32.0000
49.6760	-4.4474	-6.6498	32.0000
49.6750	-4.4541	-6.6454	32.0000
49.6740	-4.4607	-6.6409	32.0000
49.6730	-4.4674	-6.6365	32.0000
49.6720	-4.4740	-6.6320	32.0000
49.6710	-4.4806	-6.6275	32.0000
49.6700	-4.4873	-6.6230	32.0000
49.6690	-4.4939	-6.6185	32.0000
49.6680	-4.5005	-6.6140	32.0000
49.6670	-4.5071	-6.6095	32.0000
49.6660	-4.5137	-6.6050	32.0000
49.6650	-4.5203	-6.6005	32.0000
49.6640	-4.5269	-6.5960	32.0000
49.6630	-4.5335	-6.5915	32.0000
49.6620	-4.5401	-6.5869	32.0000
49.6610	-4.5467	-6.5824	32.0000
49.6600	-4.5533	-6.5778	32.0000
49.6590	-4.5598	-6.5733	32.0000
49.6580	-4.5664	-6.5687	32.0000
49.6570	-4.5730	-6.5641	32.0000
49.6560	-4.5795	-6.5596	32.0000
49.6550	-4.5861	-6.5550	32.0000
49.6540	-4.5926	-6.5504	32.0000
49.6530	-4.5992	-6.5458	32.0000
49.6520	-4.6057	-6.5412	32.0000
49.6510	-4.6123	-6.5366	32.0000
49.6500	-4.6188	-6.5320	32.0000
49.6490	-4.6253	-6.5273	32.0000
49.6480	-4.6319	-6.5227	32.0000
49.6470	-4.6384	-6.5181	32.0000
49.6460	-4.6449	-6.5134	32.0000
49.6450	-4.6514	-6.5088	32.0000
49.6440	-4.6579	-6.5041	32.0000
49.6430	-4.6644	-6.4995	32.0000
49.6420	-4.6709	-6.4948	32.0000
49.6410	-4.6774	-6.4901	32.0000
49.6400	-4.6839	-6.4855	32.0000
49.6390	-4.6904	-6.4808	32.0000
49.6380	-4.6969	-6.4761	32.0000
49.6370	-4.7033	-6.4714	32.0000
49.6360	-4.7098	-6.4667	32.0000
49.6350	-4.7163	-6.4620	32.0000
49.6340	-4.7227	-6.4572	32.0000
49.6330	-4.7292	-6.4525	32.0000
49.6320	-4.7356	-6.4478	32.0000
49.6310	-4.7421	-6.4430	32.0000
49.6300	-4.7485	-6.4383	32.0000
49.6290	-4.7550	-6.4335	32.0000
49.6280	-4.7614	-6.4288	32.0000
49.6270	-4.7678	-6.4240	32.0000
49.6260	-4.7742	-6.4192	32.0000
49.6250	-4.7806	-6.4145	32.0000
49.6240	-4.7871	-6.4097	32.0000
49.6230	-4.7935	-6.4049	32.0000
49.6220	-4.7999	-6.4001	32.0000
49.6210	-4.8063	-6.3953	32.0000
49.6200	-4.8127	-6.3905	32.0000
49.6190	-4.8190	-6.3857	32.0000
49.6180	-4.8254	-6.3808	32.0000
49.6170	-4.8318	-6.3760	32.0000
49.6160	-4.8382	-6.3712	32.0000
49.6150	-4.8446	-6.3663	32.0000
49.6140	-4.8509	-6.3615	32.0000
49.6130	-4.8573	-6.3566	32.0000
49.6120	-4.8636	-6.3518	32.0000
49.6110	-4.8700	-6.3469	32.0000
49.6100	-4.8763	-6.3420	32.0000
49.6090	-4.8827	-6.3372	32.0000
49.6080	-4.8890	-6.3323	32.0000
49.6070	-4.8953	-6.3274	32.0000
49.6060	-4.9017	-6.3225	32.0000
49.6050	-4.9080	-6.3176	32.0000
49.6040	-4.9143	-6.3127	32.0000
49.6030	-4.9206	-6.3078	32.0000
49.6020	-4.9269	-6.3028	32.0000
49.6010	-4.9332	-6.2979	32.0000
49.6000	-4.9395	-6.2930	32.0000
49.5990	-4.9458	-6.2880	32.0000
49.5980	-4.9521	-6.2831	32.0000
49.5970	-4.9584	-6.2781	32.0000
49.5960	-4.9646	-6.2732	32.0000
49.5950	-4.9709	-6.2682	32.0000
49.5940	-4.9772	-6.2632	32.0000
49.5930	-4.9834	-6.2582	32.0000
49.5920	-4.9897	-6.2532	32.0000
49.5910	-4.9959	-6.2483	32.0000
49.5900	-5.0022	-6.2433	32.0000
49.5890	-5.0084	-6.2382	32.0000
49.5880	-5.0147	-6.2332	32.0000
49.5870	-5.0209	-6.2282	32.0000
49.5860	-5.0271	-6.2232	32.0000
49.5850	-5.0333	-6.2182	32.0000
49.5840	-5.0395	-6.2131	32.0000
49.5830	-5.0458	-6.2081	32.0000
49.5820	-5.0520	-6.2030	32.0000
49.5810	-5.0582	-6.1980	32.0000
49.5800	-5.0644	-6.1929	32.0000
49.5790	-5.0706	-6.1879	32.0000
49.5780	-5.0767	-6.1828	32.0000
49.5770	-5.0829	-6.1777	32.0000
49.5760	-5.0891	-6.1726	32.0000
49.5750	-5.0953	-6.1675	32.0000
49.5740	-5.1014	-6.1624	32.0000
49.5730	-5.1076	-6.1573	32.0000
49.5720	-5.1137	-6.1522	32.0000
49.5710	-5.1199	-6.1471	32.0000
49.5700	-5.1260	-6.1420	32.0000
49.5690	-5.1322	-6.1368	32.0000
49.5680	-5.1383	-6.1317	32.0000
49.5670	-5.1444	-6.1266	32.0000
49.5660	-5.1506	-6.1214	32.0000
49.5650	-5.1567	-6.1163	32.0000
49.5640	-5.1628	-6.1111	32.0000
49.5630	-5.1689	-6.1059	32.0000
49.5620	-5.1750	-6.1008	32.0000
49.5610	-5.1811	-6.0956	32.0000
49.5600	-5.1872	-6.0904	32.0000
49.5590	-5.1933	-6.0852	32.0000
49.5580	-5.1994	-6.0800	32.0000
49.5570	-5.2054	-6.0748	32.0000
49.5560	-5.2115	-6.0696	32.0000
49.5550	-5.2176	-6.0644	32.0000
49.5540	-5.2236	-6.0592	32.0000
49.5530	-5.2297	-6.0539	32.0000
49.5520	-5.2358	-6.0487	32.0000
49.5510	-5.2418	-6.0435	32.0000
49.5500	-5.2478	-6.0382	32.0000
49.5490	-5.2539	-6.0330	32.0000
49.5480	-5.2599	-6.0277	32.0000
49.5470	-5.2659	-6.0225	32.0000
49.5460	-5.2720	-6.0172	32.0000
49.5450	-5.2780	-6.0119	32.0000
49.5440	-5.2840	-6.0066	32.0000
49.5430	-5.2900	-6.0013	32.0000
49.5420	-5.2960	-5.9961	32.0000
49.5410	-5.3020	-5.9908	32.0000
49.5400	-5.3080	-5.9854	32.0000
49.5390	-5.3139	-5.9801	32.0000
49.5380	-5.3199	-5.9748	32.0000
49.5370	-5.3259	-5.9695	32.0000
49.5360	-5.3319	-5.9642	32.0000
49.5350	-5.3378	-5.9588	32.0000
49.5340	-5.3438	-5.9535	32.0000
49.5330	-5.3497	-5.9481	32.0000
49.5320	-5.3557	-5.9428	32.0000
49.5310	-5.3616	-5.9374	32.0000
49.5300	-5.3675	-5.9321	32.0000
49.5290	-5.3735	-5.9267	32.0000
49.5280	-5.3794	-5.9213	32.0000
49.5270	-5.3853	-5.9159	32.0000
49.5260	-5.3912	-5.9106	32.0000
49.5250	-5.3971	-5.9052	32.0000
49.5240	-5.4030	-5.8998	32.0000
49.5230	-5.4089	-5.8944	32.0000
49.5220	-5.4148	-5.8889	32.0000
49.5210	-5.4207	-5.8835	32.0000
49.5200	-5.4266	-5.8781	32.0000
49.5190	-5.4325	-5.8727	32.0000
49.5180	-5.4383	-5.8672	32.0000
49.5170	-5.4442	-5.8618	32.0000
49.5160	-5.4501	-5.8563	32.0000
49.5150	-5.4559	-5.8509	32.0000
49.5140	-5.4618	-5.8454	32.0000
49.5130	-5.4676	-5.8400	32.0000
49.5120	-5.4735	-5.8345	32.0000
49.5110	-5.4793	-5.8290	32.0000
49.5100	-5.4851	-5.8235	32.0000
49.5090	-5.4909	-5.8180	32.0000
49.5080	-5.4967	-5.8126	32.0000
49.5070	-5.5026	-5.8071	32.0000
49.5060	-5.5084	-5.8016	32.0000
49.5050	-5.5142	-5.7960	32.0000
49.5040	-5.5200	-5.7905	32.0000
49.5030	-5.5257	-5.7850	32.0000
49.5020	-5.5315	-5.7795	32.0000
49.5010	-5.5373	-5.7739	32.0000
49.5000	-5.5431	-5.7684	32.0000
49.4990	-5.5488	-5.7629	32.0000
49.4980	-5.5546	-5.7573	32.0000
49.4970	-5.5603	-5.7517	32.0000
49.4960	-5.5661	-5.7462	32.0000
49.4950	-5.5718	-5.7406	32.0000
49.4940	-5.5776	-5.7350	32.0000
49.4930	-5.5833	-5.7295	32.0000
49.4920	-5.5890	-5.7239	32.0000
49.4910	-5.5948	-5.7183	32.0000
49.4900	-5.6005	-5.7127	32.0000
49.4890	-5.6062	-5.7071	32.0000
49.4880	-5.6119	-5.7015	32.0000
49.4870	-5.6176	-5.6959	32.0000
49.4860	-5.6233	-5.6902	32.0000
49.4850	-5.6290	-5.6846	32.0000
49.4840	-5.6346	-5.6790	32.0000
49.4830	-5.6403	-5.6733	32.0000
49.4820	-5.6460	-5.6677	32.0000
49.4810	-5.6517	-5.6620	32.0000
49.4800	-5.6573	-5.6564	32.0000
49.4790	-5.6630	-5.6507	32.0000
49.4780	-5.6686	-5.6451	32.0000
49.4770	-5.6743	-5.6394	32.0000
49.4760	-5.6799	-5.6337	32.0000
49.4750	-5.6855	-5.6280	32.0000
49.4740	-5.6912	-5.6223	32.0000
49.4730	-5.6968	-5.6166	32.0000
49.4720	-5.7024	-5.6109	32.0000
49.4710	-5.7080	-5.6052	32.0000
49.4700	-5.7136	-5.5995	32.0000
49.4690	-5.7192	-5.5938	32.0000
49.4680	-5.7248	-5.5881	32.0000
49.4670	-5.7304	-5.5824	32.0000
49.4660	-5.7360	-5.5766	32.0000
49.4650	-5.7415	-5.5709	32.0000
49.4640	-5.7471	-5.5652	32.0000
49.4630	-5.7527	-5.5594	32.0000
49.4620	-5.7582	-5.5536	32.0000
49.4610	-5.7638	-5.5479	32.0000
49.4600	-5.7693	-5.5421	32.0000
49.4590	-5.7748	-5.5363	32.0000
49.4580	-5.7804	-5.5306	32.0000
49.4570	-5.7859	-5.5248	32.0000
49.4560	-5.7914	-5.5190	32.0000
49.4550	-5.7969	-5.5132	32.0000
49.4540	-5.8025	-5.5074	32.0000
49.4530	-5.8080	-5.5016	32.0000
49.4520	-5.8135	-5.4958	32.0000
49.4510	-5.8190	-5.4900	32.0000
49.4500	-5.8244	-5.4841	32.0000
49.4490	-5.8299	-5.4783	32.0000
49.4480	-5.8354	-5.4725	32.0000
49.4470	-5.8409	-5.4667	32.0000
49.4460	-5.8463	-5.4608	32.0000
49.4450	-5.8518	-5.4550	32.0000
49.4440	-5.8572	-5.4491	32.0000
49.4430	-5.8627	-5.4432	32.0000
49.4420	-5.8681	-5.4374	32.0000
49.4410	-5.8736	-5.4315	32.0000
49.4400	-5.8790	-5.4256	32.0000
49.4390	-5.8844	-5.4198	32.0000
49.4380	-5.8898	-5.4139	32.0000
49.4370	-5.8952	-5.4080	32.0000
49.4360	-5.9006	-5.4021	32.0000
49.4350	-5.9060	-5.3962	32.0000
49.4340	-5.9114	-5.3903	32.0000
49.4330	-5.9168	-5.3843	32.0000
49.4320	-5.9222	-5.3784	32.0000
49.4310	-5.9276	-5.3725	32.0000
49.4300	-5.9330	-5.3666	32.0000
49.4290	-5.9383	-5.3606	32.0000
49.4280	-5.9437	-5.3547	32.0000
49.4270	-5.9490	-5.3487	32.0000
49.4260	-5.9544	-5.3428	32.0000
49.4250	-5.9597	-5.3368	32.0000
49.4240	-5.9650	-5.3309	32.0000
49.4230	-5.9704	-5.3249	32.0000
49.4220	-5.9757	-5.3189	32.0000
49.4210	-5.9810	-5.3130	32.0000
49.4200	-5.9863	-5.3070	32.0000
49.4190	-5.9916	-5.3010	32.0000
49.4180	-5.9969	-5.2950	32.0000
49.4170	-6.0022	-5.2890	32.0000
49.4160	-6.0075	-5.2830	32.0000
49.4150	-6.0128	-5.2770	32.0000
49.4140	-6.0181	-5.2710	32.0000
49.4130	-6.0233	-5.2649	32.0000
49.4120	-6.0286	-5.2589	32.0000
49.4110	-6.0338	-5.2529	32.0000
49.4100	-6.0391	-5.2468	32.0000
49.4090	-6.0443	-5.2408	32.0000
49.4080	-6.0496	-5.2348	32.0000
49.4070	-6.0548	-5.2287	32.0000
49.4060	-6.0600	-5.2226	32.0000
49.4050	-6.0652	-5.2166	32.0000
49.4040	-6.0705	-5.2105	32.0000
49.4030	-6.0757	-5.2044	32.0000
49.4020	-6.0809	-5.1984	32.0000
49.4010	-6.0861	-5.1923	32.0000
49.4000	-6.0913	-5.1862	32.0000
49.3990	-6.0964	-5.1801	32.0000
49.3980	-6.1016	-5.1740	32.0000
49.3970	-6.1068	-5.1679	32.0000
49.3960	-6.1120	-5.1618	32.0000
49.3950	-6.1171	-5.1557	32.0000
49.3940	-6.1223	-5.1496	32.0000
49.3930	-6.1274	-5.1434	32.0000
49.3920	-6.1325	-5.1373	32.0000
49.3910	-6.1377	-5.1312	32.0000
49.3900	-6.1428	-5.1250	32.0000
49.3890	-6.1479	-5.1189	32.0000
49.3880	-6.1530	-5.1127	32.0000
49.3870	-6.1582	-5.1066	32.0000
49.3860	-6.1633	-5.1004	32.0000
49.3850	-6.1684	-5.0942	32.0000
49.3840	-6.1735	-5.0881	32.0000
49.3830	-6.1785	-5.0819	32.0000
49.3820	-6.1836	-5.0757	32.0000
49.3810	-6.1887	-5.0695	32.0000
49.3800	-6.1938	-5.0633	32.0000
49.3790	-6.1988	-5.0571	32.0000
49.3780	-6.2039	-5.0509	32.0000
49.3770	-6.2089	-5.0447	32.0000
49.3760	-6.2140	-5.0385	32.0000
49.3750	-6.2190	-5.0323	32.0000
49.3740	-6.2240	-5.0261	32.0000
49.3730	-6.2290	-5.0199	32.0000
49.3720	-6.2341	-5.0136	32.0000
49.3710	-6.2391	-5.0074	32.0000
49.3700	-6.2441	-5.0012	32.0000
49.3690	-6.2491	-4.9949	32.0000
49.3680	-6.2541	-4.9887	32.0000
49.3670	-6.2591	-4.9824	32.0000
49.3660	-6.2640	-4.9761	32.0000
49.3650	-6.2690	-4.9699	32.0000
49.3640	-6.2740	-4.9636	32.0000
49.3630	-6.2789	-4.9573	32.0000
49.3620	-6.2839	-4.9510	32.0000
49.3610	-6.2888	-4.9448	32.0000
49.3600	-6.2938	-4.9385	32.0000
49.3590	-6.2987	-4.9322	32.0000
49.3580	-6.3036	-4.9259	32.0000
49.3570	-6.3086	-4.9196	32.0000
49.3560	-6.3135	-4.9132	32.0000
49.3550	-6.3184	-4.9069	32.0000
49.3540	-6.3233	-4.9006	32.0000
49.3530	-6.3282	-4.8943	32.0000
49.3520	-6.3331	-4.8880	32.0000
49.3510	-6.3380	-4.8816	32.0000
49.3500	-6.3428	-4.8753	32.0000
49.3490	-6.3477	-4.8689	32.0000
49.3480	-6.3526	-4.8626	32.0000
49.3470	-6.3574	-4.8562	32.0000
49.3460	-6.3623	-4.8499	32.0000
49.3450	-6.3671	-4.8435	32.0000
49.3440	-6.3720	-4.8371	32.0000
49.3430	-6.3768	-4.8308	32.0000
49.3420	-6.3816	-4.8244	32.0000
49.3410	-6.3865	-4.8180	32.0000
49.3400	-6.3913	-4.8116	32.0000
49.3390	-6.3961	-4.8052	32.0000
49.3380	-6.4009	-4.7988	32.0000
49.3370	-6.4057	-4.7924	32.0000
49.3360	-6.4105	-4.7860	32.0000
49.3350	-6.4153	-4.7796	32.0000
49.3340	-6.4200	-4.7732	32.0000
49.3330	-6.4248	-4.7668	32.0000
49.3320	-6.4296	-4.7603	32.0000
49.3310	-6.4343	-4.7539	32.0000
49.3300	-6.4391	-4.7475	32.0000
49.3290	-6.4438	-4.7410	32.0000
49.3280	-6.4486	-4.7346	32.0000
49.3270	-6.4533	-4.7281	32.0000
49.3260	-6.4580	-4.7217	32.0000
49.3250	-6.4627	-4.7152	32.0000
49.3240	-6.4674	-4.7087	32.0000
49.3230	-6.4721	-4.7023	32.0000
49.3220	-6.4768	-4.6958	32.0000
49.3210	-6.4815	-4.6893	32.0000
49.3200	-6.4862	-4.6828	32.0000
49.3190	-6.4909	-4.6763	32.0000
49.3180	-6.4956	-4.6698	32.0000
49.3170	-6.5002	-4.6633	32.0000
49.3160	-6.5049	-4.6568	32.0000
49.3150	-6.5096	-4.6503	32.0000
49.3140	-6.5142	-4.6438	32.0000
49.3130	-6.5188	-4.6373	32.0000
49.3120	-6.5235	-4.6308	32.0000
49.3110	-6.5281	-4.6243	32.0000
49.3100	-6.5327	-4.6177	32.0000
49.3090	-6.5373	-4.6112	32.0000
49.3080	-6.5420	-4.6047	32.0000
49.3070	-6.5466	-4.5981	32.0000
49.3060	-6.5511	-4.5916	32.0000
49.3050	-6.5557	-4.5850	32.0000
49.3040	-6.5603	-4.5785	32.0000
49.3030	-6.5649	-4.5719	32.0000
49.3020	-6.5695	-4.5653	32.0000
49.3010	-6.5740	-4.5588	32.0000
49.3000	-6.5786	-4.5522	32.0000
49.2990	-6.5831	-4.5456	32.0000
49.2980	-6.5877	-4.5390	32.0000
49.2970	-6.5922	-4.5324	32.0000
49.2960	-6.5967	-4.5258	32.0000
49.2950	-6.6013	-4.5192	32.0000
49.2940	-6.6058	-4.5126	32.0000
49.2930	-6.6103	-4.5060	32.0000
49.2920	-6.6148	-4.4994	32.0000
49.2910	-6.6193	-4.4928	32.0000
49.2900	-6.6238	-4.4862	32.0000
49.2890	-6.6283	-4.4795	32.0000
49.2880	-6.6327	-4.4729	32.0000
49.2870	-6.6372	-4.4663	32.0000
49.2860	-6.6417	-4.4596	32.0000
49.2850	-6.6461	-4.4530	32.0000
49.2840	-6.6506	-4.4463	32.0000
49.2830	-6.6550	-4.4397	32.0000
49.2820	-6.6594	-4.4330	32.0000
49.2810	-6.6639	-4.4264	32.0000
49.2800	-6.6683	-4.4197	32.0000
49.2790	-6.6727	-4.4130	32.0000
49.2780	-6.6771	-4.4064	32.0000
49.2770	-6.6815	-4.3997	32.0000
49.2760	-6.6859	-4.3930	32.0000
49.2750	-6.6903	-4.3863	32.0000
49.2740	-6.6947	-4.3796	32.0000
49.2730	-6.6991	-4.3729	32.0000
49.2720	-6.7034	-4.3662	32.0000
49.2710	-6.7078	-4.3595	32.0000
49.2700	-6.7122	-4.3528	32.0000
49.2690	-6.7165	-4.3461	32.0000
49.2680	-6.7209	-4.3394	32.0000
49.2670	-6.7252	-4.3326	32.0000
49.2660	-6.7295	-4.3259	32.0000
49.2650	-6.7338	-4.3192	32.0000
49.2640	-6.7382	-4.3124	32.0000
49.2630	-6.7425	-4.3057	32.0000
49.2620	-6.7468	-4.2990	32.0000
49.2610	-6.7511	-4.2922	32.0000
49.2600	-6.7554	-4.2855	32.0000
49.2590	-6.7596	-4.2787	32.0000
49.2580	-6.7639	-4.2719	32.0000
49.2570	-6.7682	-4.2652	32.0000
49.2560	-6.7724	-4.2584	32.0000
49.2550	-6.7767	-4.2516	32.0000
49.2540	-6.7809	-4.2449	32.0000
49.2530	-6.7852	-4.2381	32.0000
49.2520	-6.7894	-4.2313	32.0000
49.2510	-6.7937	-4.2245	32.0000
49.2500	-6.7979	-4.2177	32.0000
49.2490	-6.8021	-4.2109	32.0000
49.2480	-6.8063	-4.2041	32.0000
49.2470	-6.8105	-4.1973	32.0000
49.2460	-6.8147	-4.1905	32.0000
49.2450	-6.8189	-4.1837	32.0000
49.2440	-6.8231	-4.1768	32.0000
49.2430	-6.8272	-4.1700	32.0000
49.2420	-6.8314	-4.1632	32.0000
49.2410	-6.8356	-4.1563	32.0000
49.2400	-6.8397	-4.1495	32.0000
49.2390	-6.8439	-4.1427	32.0000
49.2380	-6.8480	-4.1358	32.0000
49.2370	-6.8521	-4.1290	32.0000
49.2360	-6.8563	-4.1221	32.0000
49.2350	-6.8604	-4.1153	32.0000
49.2340	-6.8645	-4.1084	32.0000
49.2330	-6.8686	-4.1015	32.0000
49.2320	-6.8727	-4.0947	32.0000
49.2310	-6.8768	-4.0878	32.0000
49.2300	-6.8809	-4.0809	32.0000
49.2290	-6.8849	-4.0740	32.0000
49.2280	-6.8890	-4.0671	32.0000
49.2270	-6.8931	-4.0602	32.0000
49.2260	-6.8971	-4.0533	32.0000
49.2250	-6.9012	-4.0464	32.0000
49.2240	-6.9052	-4.0395	32.0000
49.2230	-6.9093	-4.0326	32.0000
49.2220	-6.9133	-4.0257	32.0000
49.2210	-6.9173	-4.0188	32.0000
49.2200	-6.9213	-4.0119	32.0000
49.2190	-6.9253	-4.0050	32.0000
49.2180	-6.9293	-3.9980	32.0000
49.2170	-6.9333	-3.9911	32.0000
49.2160	-6.9373	-3.9842	32.0000
49.2150	-6.9413	-3.9772	32.0000
49.2140	-6.9453	-3.9703	32.0000
49.2130	-6.9492	-3.9633	32.0000
49.2120	-6.9532	-3.9564	32.0000
49.2110	-6.9572	-3.9494	32.0000
49.2100	-6.9611	-3.9425	32.0000
49.2090	-6.9650	-3.9355	32.0000
49.2080	-6.9690	-3.9285	32.0000
49.2070	-6.9729	-3.9216	32.0000
49.2060	-6.9768	-3.9146	32.0000
49.2050	-6.9807	-3.9076	32.0000
49.2040	-6.9846	-3.9006	32.0000
49.2030	-6.9885	-3.8937	32.0000
49.2020	-6.9924	-3.8867	32.0000
49.2010	-6.9963	-3.8797	32.0000
49.2000	-7.0002	-3.8727	32.0000
49.1990	-7.0040	-3.8657	32.0000
49.1980	-7.0079	-3.8587	32.0000
49.1970	-7.0118	-3.8517	32.0000
49.1960	-7.0156	-3.8446	32.0000
49.1950	-7.0194	-3.8376	32.0000
49.1940	-7.0233	-3.8306	32.0000
49.1930	-7.0271	-3.8236	32.0000
49.1920	-7.0309	-3.8165	32.0000
49.1910	-7.0347	-3.8095	32.0000
49.1900	-7.0385	-3.8025	32.0000
49.1890	-7.0423	-3.7954	32.0000
49.1880	-7.0461	-3.7884	32.0000
49.1870	-7.0499	-3.7813	32.0000
49.1860	-7.0537	-3.7743	32.0000
49.1850	-7.0575	-3.7672	32.0000
49.1840	-7.0612	-3.7602	32.0000
49.1830	-7.0650	-3.7531	32.0000
49.1820	-7.0687	-3.7460	32.0000
49.1810	-7.0725	-3.7390	32.0000
49.1800	-7.0762	-3.7319	32.0000
49.1790	-7.0800	-3.7248	32.0000
49.1780	-7.0837	-3.7177	32.0000
49.1770	-7.0874	-3.7107	32.0000
49.1760	-7.0911	-3.7036	32.0000
49.1750	-7.0948	-3.6965	32.0000
49.1740	-7.0985	-3.6894	32.0000
49.1730	-7.1022	-3.6823	32.0000
49.1720	-7.1059	-3.6752	32.0000
49.1710	-7.1095	-3.6681	32.0000
49.1700	-7.1132	-3.6610	32.0000
49.1690	-7.1168	-3.6538	32.0000
49.1680	-7.1205	-3.6467	32.0000
49.1670	-7.1241	-3.6396	32.0000
49.1660	-7.1278	-3.6325	32.0000
49.1650	-7.1314	-3.6253	32.0000
49.1640	-7.1350	-3.6182	32.0000
49.1630	-7.1386	-3.6111	32.0000
49.1620	-7.1422	-3.6039	32.0000
49.1610	-7.1458	-3.5968	32.0000
49.1600	-7.1494	-3.5896	32.0000
49.1590	-7.1530	-3.5825	32.0000
49.1580	-7.1566	-3.5753	32.0000
49.1570	-7.1602	-3.5682	32.0000
49.1560	-7.1637	-3.5610	32.0000
49.1550	-7.1673	-3.5538	32.0000
49.1540	-7.1708	-3.5467	32.0000
49.1530	-7.1744	-3.5395	32.0000
49.1520	-7.1779	-3.5323	32.0000
49.1510	-7.1815	-3.5252	32.0000
49.1500	-7.1850	-3.5180	32.0000
49.1490	-7.1885	-3.5108	32.0000
49.1480	-7.1920	-3.5036	32.0000
49.1470	-7.1955	-3.4964	32.0000
49.1460	-7.1990	-3.4892	32.0000
49.1450	-7.2025	-3.4820	32.0000
49.1440	-7.2060	-3.4748	32.0000
49.1430	-7.2094	-3.4676	32.0000
49.1420	-7.2129	-3.4604	32.0000
49.1410	-7.2163	-3.4532	32.0000
49.1400	-7.2198	-3.4459	32.0000
49.1390	-7.2232	-3.4387	32.0000
49.1380	-7.2267	-3.4315	32.0000
49.1370	-7.2301	-3.4243	32.0000
49.1360	-7.2335	-3.4170	32.0000
49.1350	-7.2369	-3.4098	32.0000
49.1340	-7.2403	-3.4026	32.0000
49.1330	-7.2437	-3.3953	32.0000
49.1320	-7.2471	-3.3881	32.0000
49.1310	-7.2505	-3.3808	32.0000
49.1300	-7.2539	-3.3736	32.0000
49.1290	-7.2573	-3.3663	32.0000
49.1280	-7.2606	-3.3591	32.0000
49.1270	-7.2640	-3.3518	32.0000
49.1260	-7.2673	-3.3445	32.0000
49.1250	-7.2707	-3.3373	32.0000
49.1240	-7.2740	-3.3300	32.0000
49.1230	-7.2773	-3.3227	32.0000
49.1220	-7.2807	-3.3154	32.0000
49.1210	-7.2840	-3.3082	32.0000
49.1200	-7.2873	-3.3009	32.0000
49.1190	-7.2906	-3.2936	32.0000
49.1180	-7.2939	-3.2863	32.0000
49.1170	-7.2971	-3.2790	32.0000
49.1160	-7.3004	-3.2717	32.0000
49.1150	-7.3037	-3.2644	32.0000
49.1140	-7.3069	-3.2571	32.0000
49.1130	-7.3102	-3.2498	32.0000
49.1120	-7.3134	-3.2425	32.0000
49.1110	-7.3167	-3.2352	32.0000
49.1100	-7.3199	-3.2278	32.0000
49.1090	-7.3231	-3.2205	32.0000
49.1080	-7.3264	-3.2132	32.0000
49.1070	-7.3296	-3.2059	32.0000
49.1060	-7.3328	-3.1985	32.0000
49.1050	-7.3360	-3.1912	32.0000
49.1040	-7.3391	-3.1839	32.0000
49.1030	-7.3423	-3.1765	32.0000
49.1020	-7.3455	-3.1692	32.0000
49.1010	-7.3487	-3.1618	32.0000
49.1000	-7.3518	-3.1545	32.0000
49.0990	-7.3550	-3.1471	32.0000
49.0980	-7.3581	-3.1398	32.0000
49.0970	-7.3613	-3.1324	32.0000
49.0960	-7.3644	-3.1250	32.0000
49.0950	-7.3675	-3.1177	32.0000
49.0940	-7.3706	-3.1103	32.0000
49.0930	-7.3737	-3.1029	32.0000
49.0920	-7.3768	-3.0956	32.0000
49.0910	-7.3799	-3.0882	32.0000
49.0900	-7.3830	-3.0808	32.0000
49.0890	-7.3861	-3.0734	32.0000
49.0880	-7.3891	-3.0660	32.0000
49.0870	-7.3922	-3.0586	32.0000
49.0860	-7.3953	-3.0512	32.0000
49.0850	-7.3983	-3.0438	32.0000
49.0840	-7.4014	-3.0364	32.0000
49.0830	-7.4044	-3.0290	32.0000
49.0820	-7.4074	-3.0216	32.0000
49.0810	-7.4104	-3.0142	32.0000
49.0800	-7.4134	-3.0068	32.0000
49.0790	-7.4164	-2.9994	32.0000
49.0780	-7.4194	-2.9920	32.0000
49.0770	-7.4224	-2.9846	32.0000
49.0760	-7.4254	-2.9771	32.0000
49.0750	-7.4284	-2.9697	32.0000
49.0740	-7.4313	-2.9623	32.0000
49.0730	-7.4343	-2.9548	32.0000
49.0720	-7.4373	-2.9474	32.0000
49.0710	-7.4402	-2.9400	32.0000
49.0700	-7.4431	-2.9325	32.0000
49.0690	-7.4461	-2.9251	32.0000
49.0680	-7.4490	-2.9176	32.0000
49.0670	-7.4519	-2.9102	32.0000
49.0660	-7.4548	-2.9027	32.0000
49.0650	-7.4577	-2.8953	32.0000