# Time	Position	Velocity	Total Energy
0.0000	0.0000	8.0000	32.0000
0.0100	0.0800	8.0000	32.0032
0.0200	0.1600	8.0000	32.0128
0.0300	0.2400	7.9992	32.0224
0.0400	0.3200	7.9976	32.0320
0.0500	0.3999	7.9952	32.0416
0.0600	0.4799	7.9920	32.0512
0.0700	0.5598	7.9880	32.0608
0.0800	0.6396	7.9832	32.0704
0.0900	0.7194	7.9776	32.0799
0.1000	0.7992	7.9712	32.0895
0.1100	0.8789	7.9640	32.0991
0.1200	0.9585	7.9560	32.1086
0.1300	1.0380	7.9473	32.1182
0.1400	1.1174	7.9377	32.1277
0.1500	1.1967	7.9273	32.1372
0.1600	1.2759	7.9161	32.1467
0.1700	1.3550	7.9042	32.1562
0.1800	1.4340	7.8914	32.1657
0.1900	1.5129	7.8779	32.1751
0.2000	1.5916	7.8636	32.1846
0.2100	1.6701	7.8485	32.1940
0.2200	1.7485	7.8326	32.2034
0.2300	1.8268	7.8159	32.2128
0.2400	1.9049	7.7985	32.2222
0.2500	1.9828	7.7802	32.2315
0.2600	2.0605	7.7612	32.2408
0.2700	2.1380	7.7414	32.2501
0.2800	2.2153	7.7208	32.2594
0.2900	2.2924	7.6995	32.2687
0.3000	2.3693	7.6774	32.2779
0.3100	2.4459	7.6545	32.2871
0.3200	2.5224	7.6309	32.2963
0.3300	2.5985	7.6065	32.3054
0.3400	2.6745	7.5813	32.3145
0.3500	2.7502	7.5554	32.3236
0.3600	2.8256	7.5287	32.3326
0.3700	2.9007	7.5013	32.3417
0.3800	2.9756	7.4731	32.3506
0.3900	3.0502	7.4442	32.3596
0.4000	3.1245	7.4145	32.3685
0.4100	3.1985	7.3841	32.3774
0.4200	3.2722	7.3529	32.3862
0.4300	3.3455	7.3210	32.3950
0.4400	3.4186	7.2884	32.4038
0.4500	3.4913	7.2551	32.4125
0.4600	3.5637	7.2210	32.4212
0.4700	3.6357	7.1862	32.4298
0.4800	3.7074	7.1507	32.4384
0.4900	3.7787	7.1144	32.4470
0.5000	3.8497	7.0775	32.4555
0.5100	3.9203	7.0398	32.4640
0.5200	3.9905	7.0015	32.4724
0.5300	4.0603	6.9624	32.4808
0.5400	4.1297	6.9227	32.4891
0.5500	4.1987	6.8822	32.4974
0.5600	4.2674	6.8411	32.5056
0.5700	4.3356	6.7993	32.5138
0.5800	4.4033	6.7568	32.5219
0.5900	4.4707	6.7136	32.5300
0.6000	4.5376	6.6698	32.5380
0.6100	4.6041	6.6253	32.5460
0.6200	4.6701	6.5801	32.5539
0.6300	4.7357	6.5343	32.5618
0.6400	4.8008	6.4878	32.5696
0.6500	4.8654	6.4407	32.5774
0.6600	4.9296	6.3929	32.5851
0.6700	4.9933	6.3445	32.5927
0.6800	5.0565	6.2954	32.6003
0.6900	5.1192	6.2457	32.6078
0.7000	5.1814	6.1954	32.6153
0.7100	5.2431	6.1445	32.6227
0.7200	5.3043	6.0930	32.6300
0.7300	5.3650	6.0408	32.6373
0.7400	5.4251	5.9881	32.6445
0.7500	5.4847	5.9347	32.6517
0.7600	5.5438	5.8808	32.6587
0.7700	5.6023	5.8263	32.6658
0.7800	5.6603	5.7711	32.6727
0.7900	5.7178	5.7155	32.6796
0.8000	5.7746	5.6592	32.6864
0.8100	5.8309	5.6024	32.6932
0.8200	5.8867	5.5450	32.6999
0.8300	5.9418	5.4870	32.7065
0.8400	5.9964	5.4285	32.7130
0.8500	6.0504	5.3695	32.7195
0.8600	6.1038	5.3099	32.7259
0.8700	6.1566	5.2498	32.7322
0.8800	6.2088	5.1892	32.7385
0.8900	6.2604	5.1281	32.7447
0.9000	6.3114	5.0664	32.7508
0.9100	6.3617	5.0042	32.7569
0.9200	6.4114	4.9416	32.7628
0.9300	6.4605	4.8784	32.7687
0.9400	6.5090	4.8148	32.7745
0.9500	6.5568	4.7506	32.7803
0.9600	6.6040	4.6860	32.7859
0.9700	6.6505	4.6210	32.7915
0.9800	6.6964	4.5554	32.7970
0.9900	6.7417	4.4894	32.8024
1.0000	6.7862	4.4230	32.8078
1.0100	6.8301	4.3561	32.8130
1.0200	6.8733	4.2888	32.8182
1.0300	6.9159	4.2210	32.8233
1.0400	6.9578	4.1529	32.8284
1.0500	6.9989	4.0843	32.8333
1.0600	7.0394	4.0153	32.8381
1.0700	7.0792	3.9459	32.8429
1.0800	7.1184	3.8761	32.8476
1.0900	7.1568	3.8059	32.8522
1.1000	7.1945	3.7354	32.8567
1.1100	7.2315	3.6645	32.8612
1.1200	7.2678	3.5932	32.8655
1.1300	7.3033	3.5215	32.8698
1.1400	7.3382	3.4495	32.8740
1.1500	7.3723	3.3771	32.8781
1.1600	7.4057	3.3044	32.8821
1.1700	7.4384	3.2314	32.8860
1.1800	7.4704	3.1581	32.8898
1.1900	7.5016	3.0844	32.8936
1.2000	7.5320	3.0105	32.8972
1.2100	7.5618	2.9362	32.9008
1.2200	7.5908	2.8616	32.9043
1.2300	7.6190	2.7868	32.9077
1.2400	7.6465	2.7116	32.9110
1.2500	7.6732	2.6362	32.9142
1.2600	7.6992	2.5606	32.9173
1.2700	7.7244	2.4847	32.9203
1.2800	7.7489	2.4085	32.9233
1.2900	7.7726	2.3321	32.9261
1.3000	7.7956	2.2554	32.9289
1.3100	7.8177	2.1786	32.9315
1.3200	7.8391	2.1015	32.9341
1.3300	7.8598	2.0242	32.9366
1.3400	7.8796	1.9467	32.9389
1.3500	7.8987	1.8690	32.9412
1.3600	7.9170	1.7911	32.9434
1.3700	7.9345	1.7131	32.9455
1.3800	7.9512	1.6348	32.9475
1.3900	7.9672	1.5565	32.9494
1.4000	7.9824	1.4779	32.9513
1.4100	7.9968	1.3992	32.9530
1.4200	8.0104	1.3204	32.9546
1.4300	8.0232	1.2414	32.9562
1.4400	8.0352	1.1623	32.9576
1.4500	8.0464	1.0831	32.9589
1.4600	8.0568	1.0038	32.9602
1.4700	8.0665	0.9244	32.9614
1.4800	8.0753	0.8449	32.9624
1.4900	8.0834	0.7653	32.9634
1.5000	8.0906	0.6856	32.9642
1.5100	8.0971	0.6059	32.9650
1.5200	8.1028	0.5261	32.9657
1.5300	8.1076	0.4462	32.9663
1.5400	8.1117	0.3663	32.9668
1.5500	8.1149	0.2864	32.9672
1.5600	8.1174	0.2064	32.9675
1.5700	8.1191	0.1264	32.9677
1.5800	8.1199	0.0464	32.9678
1.5900	8.1200	-0.0336	32.9678
1.6000	8.1193	-0.1136	32.9677
1.6100	8.1177	-0.1935	32.9675
1.6200	8.1154	-0.2735	32.9672
1.6300	8.1123	-0.3534	32.9668
1.6400	8.1083	-0.4334	32.9664
1.6500	8.1036	-0.5132	32.9658
1.6600	8.0981	-0.5930	32.9651
1.6700	8.0917	-0.6728	32.9644
1.6800	8.0846	-0.7525	32.9635
1.6900	8.0767	-0.8321	32.9626
1.7000	8.0680	-0.9116	32.9615
1.7100	8.0585	-0.9910	32.9604
1.7200	8.0481	-1.0703	32.9592
1.7300	8.0370	-1.1496	32.9578
1.7400	8.0252	-1.2287	32.9564
1.7500	8.0125	-1.3077	32.9549
1.7600	7.9990	-1.3865	32.9533
1.7700	7.9847	-1.4652	32.9515
1.7800	7.9697	-1.5438	32.9497
1.7900	7.9539	-1.6222	32.9478
1.8000	7.9373	-1.7005	32.9458
1.8100	7.9199	-1.7786	32.9438
1.8200	7.9017	-1.8565	32.9416
1.8300	7.8827	-1.9342	32.9393
1.8400	7.8630	-2.0117	32.9369
1.8500	7.8425	-2.0891	32.9345
1.8600	7.8212	-2.1662	32.9319
1.8700	7.7992	-2.2431	32.9293
1.8800	7.7764	-2.3198	32.9265
1.8900	7.7528	-2.3962	32.9237
1.9000	7.7284	-2.4724	32.9208
1.9100	7.7033	-2.5484	32.9178
1.9200	7.6775	-2.6241	32.9147
1.9300	7.6509	-2.6995	32.9115
1.9400	7.6235	-2.7747	32.9082
1.9500	7.5954	-2.8496	32.9048
1.9600	7.5665	-2.9242	32.9014
1.9700	7.5369	-2.9985	32.8978
1.9800	7.5065	-3.0725	32.8942
1.9900	7.4754	-3.1462	32.8904
2.0000	7.4436	-3.2196	32.8866
2.0100	7.4110	-3.2927	32.8827
2.0200	7.3777	-3.3655	32.8787
2.0300	7.3437	-3.4379	32.8746
2.0400	7.3090	-3.5099	32.8705
2.0500	7.2735	-3.5816	32.8662
2.0600	7.2374	-3.6530	32.8619
2.0700	7.2005	-3.7240	32.8574
2.0800	7.1629	-3.7946	32.8529
2.0900	7.1246	-3.8648	32.8483
2.1000	7.0856	-3.9347	32.8436
2.1100	7.0459	-4.0041	32.8389
2.1200	7.0055	-4.0732	32.8340
2.1300	6.9644	-4.1418	32.8291
2.1400	6.9227	-4.2101	32.8241
2.1500	6.8802	-4.2779	32.8190
2.1600	6.8371	-4.3453	32.8138
2.1700	6.7933	-4.4122	32.8086
2.1800	6.7489	-4.4787	32.8032
2.1900	6.7038	-4.5448	32.7978
2.2000	6.6580	-4.6104	32.7923
2.2100	6.6115	-4.6756	32.7867
2.2200	6.5645	-4.7402	32.7811
2.2300	6.5167	-4.8044	32.7754
2.2400	6.4684	-4.8682	32.7696
2.2500	6.4194	-4.9314	32.7637
2.2600	6.3698	-4.9942	32.7577
2.2700	6.3195	-5.0564	32.7517
2.2800	6.2686	-5.1181	32.7456
2.2900	6.2171	-5.1794	32.7394
2.3000	6.1650	-5.2401	32.7331
2.3100	6.1123	-5.3003	32.7268
2.3200	6.0590	-5.3599	32.7204
2.3300	6.0052	-5.4190	32.7139
2.3400	5.9507	-5.4776	32.7074
2.3500	5.8956	-5.5357	32.7008
2.3600	5.8400	-5.5931	32.6941
2.3700	5.7837	-5.6501	32.6874
2.3800	5.7270	-5.7064	32.6805
2.3900	5.6696	-5.7622	32.6737
2.4000	5.6117	-5.8174	32.6667
2.4100	5.5533	-5.8720	32.6597
2.4200	5.4943	-5.9261	32.6526
2.4300	5.4348	-5.9795	32.6455
2.4400	5.3747	-6.0323	32.6382
2.4500	5.3141	-6.0846	32.6310
2.4600	5.2530	-6.1362	32.6236
2.4700	5.1914	-6.1872	32.6162
2.4800	5.1293	-6.2376	32.6088
2.4900	5.0666	-6.2874	32.6013
2.5000	5.0035	-6.3366	32.5937
2.5100	4.9399	-6.3851	32.5860
2.5200	4.8758	-6.4330	32.5783
2.5300	4.8113	-6.4802	32.5706
2.5400	4.7462	-6.5268	32.5628
2.5500	4.6807	-6.5727	32.5549
2.5600	4.6148	-6.6180	32.5470
2.5700	4.5484	-6.6626	32.5390
2.5800	4.4815	-6.7066	32.5310
2.5900	4.4142	-6.7498	32.5229
2.6000	4.3465	-6.7924	32.5148
2.6100	4.2784	-6.8344	32.5066
2.6200	4.2098	-6.8756	32.4984
2.6300	4.1409	-6.9162	32.4901
2.6400	4.0715	-6.9560	32.4817
2.6500	4.0018	-6.9952	32.4734
2.6600	3.9316	-7.0337	32.4649
2.6700	3.8611	-7.0714	32.4565
2.6800	3.7902	-7.1085	32.4480
2.6900	3.7189	-7.1448	32.4394
2.7000	3.6473	-7.1804	32.4308
2.7100	3.5753	-7.2154	32.4221
2.7200	3.5030	-7.2495	32.4135
2.7300	3.4303	-7.2830	32.4047
2.7400	3.3573	-7.3157	32.3960
2.7500	3.2840	-7.3478	32.3872
2.7600	3.2104	-7.3790	32.3783
2.7700	3.1364	-7.4096	32.3694
2.7800	3.0622	-7.4393	32.3605
2.7900	2.9877	-7.4684	32.3516
2.8000	2.9128	-7.4967	32.3426
2.8100	2.8377	-7.5242	32.3335
2.8200	2.7624	-7.5510	32.3245
2.8300	2.6867	-7.5771	32.3154
2.8400	2.6108	-7.6024	32.3063
2.8500	2.5347	-7.6269	32.2971
2.8600	2.4583	-7.6507	32.2879
2.8700	2.3817	-7.6737	32.2787
2.8800	2.3048	-7.6959	32.2695
2.8900	2.2278	-7.7174	32.2602
2.9000	2.1505	-7.7380	32.2510
2.9100	2.0730	-7.7580	32.2417
2.9200	1.9953	-7.7771	32.2323
2.9300	1.9175	-7.7955	32.2230
2.9400	1.8394	-7.8130	32.2136
2.9500	1.7612	-7.8299	32.2042
2.9600	1.6828	-7.8459	32.1948
2.9700	1.6043	-7.8611	32.1853
2.9800	1.5256	-7.8756	32.1759
2.9900	1.4468	-7.8892	32.1664
3.0000	1.3678	-7.9021	32.1569
3.0100	1.2887	-7.9142	32.1474
3.0200	1.2095	-7.9255	32.1379
3.0300	1.1302	-7.9359	32.1284
3.0400	1.0508	-7.9457	32.1188
3.0500	0.9713	-7.9546	32.1093
3.0600	0.8917	-7.9627	32.0997
3.0700	0.8121	-7.9700	32.0901
3.0800	0.7323	-7.9765	32.0805
3.0900	0.6526	-7.9822	32.0709
3.1000	0.5727	-7.9872	32.0613
3.1100	0.4928	-7.9913	32.0517
3.1200	0.4129	-7.9946	32.0421
3.1300	0.3329	-7.9971	32.0325
3.1400	0.2529	-7.9989	32.0229
3.1500	0.1729	-7.9998	32.0133
3.1600	0.0930	-7.9999	32.0037
3.1700	0.0130	-7.9992	31.9941
3.1800	-0.0670	-7.9978	31.9845
3.1900	-0.1470	-7.9955	31.9748
3.2000	-0.2269	-7.9924	31.9652
3.2100	-0.3068	-7.9886	31.9556
3.2200	-0.3867	-7.9839	31.9460
3.2300	-0.4665	-7.9784	31.9364
3.2400	-0.5463	-7.9722	31.9268
3.2500	-0.6260	-7.9651	31.9173
3.2600	-0.7056	-7.9572	31.9077
3.2700	-0.7851	-7.9486	31.8981
3.2800	-0.8645	-7.9391	31.8886
3.2900	-0.9439	-7.9289	31.8790
3.3000	-1.0231	-7.9178	31.8695
3.3100	-1.1022	-7.9060	31.8600
3.3200	-1.1812	-7.8934	31.8505
3.3300	-1.2601	-7.8800	31.8410
3.3400	-1.3388	-7.8658	31.8315
3.3500	-1.4174	-7.8508	31.8221
3.3600	-1.4958	-7.8350	31.8127
3.3700	-1.5741	-7.8185	31.8033
3.3800	-1.6522	-7.8012	31.7939
3.3900	-1.7301	-7.7830	31.7845
3.4000	-1.8079	-7.7641	31.7751
3.4100	-1.8854	-7.7445	31.7658
3.4200	-1.9627	-7.7240	31.7565
3.4300	-2.0399	-7.7028	31.7472
3.4400	-2.1168	-7.6808	31.7380
3.4500	-2.1935	-7.6581	31.7288
3.4600	-2.2699	-7.6346	31.7196
3.4700	-2.3462	-7.6103	31.7104
3.4800	-2.4222	-7.5852	31.7013
3.4900	-2.4979	-7.5594	31.6922
3.5000	-2.5733	-7.5329	31.6831
3.5100	-2.6485	-7.5056	31.6740
3.5200	-2.7234	-7.4775	31.6650
3.5300	-2.7981	-7.4487	31.6560
3.5400	-2.8724	-7.4191	31.6471
3.5500	-2.9465	-7.3888	31.6382
3.5600	-3.0202	-7.3578	31.6293
3.5700	-3.0936	-7.3260	31.6205
3.5800	-3.1667	-7.2935	31.6117
3.5900	-3.2395	-7.2603	31.6030
3.6000	-3.3119	-7.2263	31.5942
3.6100	-3.3840	-7.1916	31.5856
3.6200	-3.4557	-7.1562	31.5769
3.6300	-3.5271	-7.1201	31.5683
3.6400	-3.5981	-7.0833	31.5598
3.6500	-3.6688	-7.0458	31.5513
3.6600	-3.7390	-7.0075	31.5429
3.6700	-3.8089	-6.9686	31.5344
3.6800	-3.8784	-6.9289	31.5261
3.6900	-3.9475	-6.8886	31.5178
3.7000	-4.0162	-6.8476	31.5095
3.7100	-4.0844	-6.8059	31.5013
3.7200	-4.1523	-6.7635	31.4931
3.7300	-4.2197	-6.7204	31.4850
3.7400	-4.2867	-6.6767	31.4770
3.7500	-4.3532	-6.6323	31.4690
3.7600	-4.4193	-6.5872	31.4610
3.7700	-4.4850	-6.5415	31.4531
3.7800	-4.5502	-6.4951	31.4453
3.7900	-4.6149	-6.4481	31.4375
3.8000	-4.6791	-6.4004	31.4297
3.8100	-4.7429	-6.3521	31.4221
3.8200	-4.8062	-6.3031	31.4145
3.8300	-4.8689	-6.2536	31.4069
3.8400	-4.9312	-6.2034	31.3994
3.8500	-4.9930	-6.1525	31.3920
3.8600	-5.0543	-6.1011	31.3846
3.8700	-5.1150	-6.0491	31.3773
3.8800	-5.1753	-5.9964	31.3700
3.8900	-5.2350	-5.9431	31.3629
3.9000	-5.2941	-5.8893	31.3557
3.9100	-5.3527	-5.8349	31.3487
3.9200	-5.4108	-5.7798	31.3417
3.9300	-5.4683	-5.7242	31.3348
3.9400	-5.5253	-5.6681	31.3279
3.9500	-5.5817	-5.6113	31.3211
3.9600	-5.6375	-5.5540	31.3144
3.9700	-5.6928	-5.4962	31.3078
3.9800	-5.7474	-5.4378	31.3012
3.9900	-5.8015	-5.3788	31.2947
4.0000	-5.8550	-5.3193	31.2882
4.0100	-5.9079	-5.2593	31.2819
4.0200	-5.9602	-5.1988	31.2756
4.0300	-6.0119	-5.1377	31.2693
4.0400	-6.0629	-5.0761	31.2632
4.0500	-6.1134	-5.0140	31.2571
4.0600	-6.1632	-4.9515	31.2511
4.0700	-6.2124	-4.8884	31.2452
4.0800	-6.2610	-4.8248	31.2394
4.0900	-6.3089	-4.7607	31.2336
4.1000	-6.3562	-4.6962	31.2279
4.1100	-6.4028	-4.6312	31.2223
4.1200	-6.4488	-4.5658	31.2167
4.1300	-6.4942	-4.4998	31.2113
4.1400	-6.5388	-4.4335	31.2059
4.1500	-6.5828	-4.3667	31.2006
4.1600	-6.6262	-4.2994	31.1954
4.1700	-6.6688	-4.2317	31.1903
4.1800	-6.7108	-4.1636	31.1852
4.1900	-6.7521	-4.0951	31.1802
4.2000	-6.7927	-4.0262	31.1753
4.2100	-6.8326	-3.9569	31.1705
4.2200	-6.8718	-3.8871	31.1658
4.2300	-6.9103	-3.8170	31.1612
4.2400	-6.9482	-3.7465	31.1566
4.2500	-6.9853	-3.6756	31.1522
4.2600	-7.0217	-3.6044	31.1478
4.2700	-7.0574	-3.5328	31.1435
4.2800	-7.0923	-3.4609	31.1393
4.2900	-7.1266	-3.3886	31.1351
4.3000	-7.1601	-3.3159	31.1311
4.3100	-7.1929	-3.2429	31.1272
4.3200	-7.2250	-3.1697	31.1233
4.3300	-7.2563	-3.0960	31.1195
4.3400	-7.2869	-3.0221	31.1158
4.3500	-7.3167	-2.9479	31.1123
4.3600	-7.3458	-2.8734	31.1087
4.3700	-7.3742	-2.7986	31.1053
4.3800	-7.4018	-2.7235	31.1020
4.3900	-7.4287	-2.6481	31.0988
4.4000	-7.4548	-2.5725	31.0956
4.4100	-7.4801	-2.4966	31.0926
4.4200	-7.5047	-2.4205	31.0896
4.4300	-7.5285	-2.3441	31.0868
4.4400	-7.5516	-2.2675	31.0840
4.4500	-7.5739	-2.1907	31.0813
4.4600	-7.5954	-2.1137	31.0787
4.4700	-7.6161	-2.0364	31.0762
4.4800	-7.6361	-1.9589	31.0738
4.4900	-7.6553	-1.8813	31.0715
4.5000	-7.6737	-1.8034	31.0693
4.5100	-7.6914	-1.7254	31.0671
4.5200	-7.7082	-1.6472	31.0651
4.5300	-7.7243	-1.5688	31.0632
4.5400	-7.7396	-1.4903	31.0613
4.5500	-7.7541	-1.4116	31.0596
4.5600	-7.7678	-1.3328	31.0579
4.5700	-7.7808	-1.2539	31.0564
4.5800	-7.7929	-1.1748	31.0549
4.5900	-7.8043	-1.0956	31.0535
4.6000	-7.8148	-1.0163	31.0523
4.6100	-7.8246	-0.9369	31.0511
4.6200	-7.8336	-0.8574	31.0500
4.6300	-7.8418	-0.7778	31.0490
4.6400	-7.8491	-0.6982	31.0481
4.6500	-7.8557	-0.6184	31.0473
4.6600	-7.8615	-0.5386	31.0466
4.6700	-7.8665	-0.4588	31.0460
4.6800	-7.8707	-0.3789	31.0455
4.6900	-7.8741	-0.2990	31.0451
4.7000	-7.8767	-0.2190	31.0448
4.7100	-7.8784	-0.1390	31.0446
4.7200	-7.8794	-0.0590	31.0445
4.7300	-7.8796	0.0210	31.0445
4.7400	-7.8790	0.1010	31.0445
4.7500	-7.8776	0.1809	31.0447
4.7600	-7.8754	0.2609	31.0450
4.7700	-7.8724	0.3409	31.0453
4.7800	-7.8686	0.4208	31.0458
4.7900	-7.8640	0.5006	31.0464
4.8000	-7.8586	0.5804	31.0470
4.8100	-7.8524	0.6602	31.0477
4.8200	-7.8454	0.7399	31.0486
4.8300	-7.8376	0.8195	31.0495
4.8400	-7.8290	0.8991	31.0506
4.8500	-7.8196	0.9785	31.0517
4.8600	-7.8094	1.0579	31.0529
4.8700	-7.7984	1.1371	31.0542
4.8800	-7.7867	1.2162	31.0557
4.8900	-7.7741	1.2952	31.0572
4.9000	-7.7608	1.3741	31.0588
4.9100	-7.7466	1.4529	31.0605
4.9200	-7.7317	1.5315	31.0623
4.9300	-7.7160	1.6099	31.0642
4.9400	-7.6995	1.6882	31.0662
4.9500	-7.6822	1.7663	31.0682
4.9600	-7.6642	1.8442	31.0704
4.9700	-7.6453	1.9220	31.0727
4.9800	-7.6257	1.9995	31.0750
4.9900	-7.6054	2.0769	31.0775
5.0000	-7.5842	2.1541	31.0801
5.0100	-7.5623	2.2310	31.0827
5.0200	-7.5396	2.3077	31.0854
5.0300	-7.5161	2.3842	31.0883
5.0400	-7.4919	2.4604	31.0912
5.0500	-7.4669	2.5364	31.0942
5.0600	-7.4412	2.6122	31.0973
5.0700	-7.4147	2.6877	31.1005
5.0800	-7.3874	2.7629	31.1038
5.0900	-7.3594	2.8378	31.1071
5.1000	-7.3307	2.9125	31.1106
5.1100	-7.3012	2.9868	31.1141
5.1200	-7.2709	3.0609	31.1178
5.1300	-7.2400	3.1347	31.1215
5.1400	-7.2082	3.2081	31.1253
5.1500	-7.1758	3.2812	31.1292
5.1600	-7.1426	3.3540	31.1332
5.1700	-7.1087	3.4265	31.1373
5.1800	-7.0741	3.4986	31.1415
5.1900	-7.0387	3.5704	31.1458
5.2000	-7.0027	3.6418	31.1501
5.2100	-6.9659	3.7128	31.1545
5.2200	-6.9284	3.7835	31.1590
5.2300	-6.8902	3.8538	31.1636
5.2400	-6.8514	3.9237	31.1683
5.2500	-6.8118	3.9932	31.1731
5.2600	-6.7715	4.0624	31.1780
5.2700	-6.7305	4.1311	31.1829
5.2800	-6.6889	4.1994	31.1879
5.2900	-6.6465	4.2673	31.1930
5.3000	-6.6035	4.3347	31.1982
5.3100	-6.5599	4.4017	31.2034
5.3200	-6.5155	4.4683	31.2088
5.3300	-6.4705	4.5344	31.2142
5.3400	-6.4248	4.6001	31.2197
5.3500	-6.3785	4.6654	31.2253
5.3600	-6.3315	4.7301	31.2310
5.3700	-6.2839	4.7944	31.2367
5.3800	-6.2356	4.8582	31.2425
5.3900	-6.1867	4.9215	31.2484
5.4000	-6.1372	4.9843	31.2544
5.4100	-6.0870	5.0467	31.2604
5.4200	-6.0363	5.1085	31.2665
5.4300	-5.9849	5.1698	31.2727
5.4400	-5.9329	5.2306	31.2790
5.4500	-5.8803	5.2909	31.2853
5.4600	-5.8271	5.3506	31.2917
5.4700	-5.7733	5.4098	31.2982
5.4800	-5.7189	5.4685	31.3048
5.4900	-5.6639	5.5266	31.3114
5.5000	-5.6083	5.5841	31.3181
5.5100	-5.5522	5.6412	31.3248
5.5200	-5.4955	5.6976	31.3317
5.5300	-5.4383	5.7535	31.3386
5.5400	-5.3804	5.8088	31.3455
5.5500	-5.3221	5.8635	31.3526
5.5600	-5.2632	5.9176	31.3596
5.5700	-5.2037	5.9712	31.3668
5.5800	-5.1438	6.0241	31.3740
5.5900	-5.0833	6.0764	31.3813
5.6000	-5.0222	6.1282	31.3887
5.6100	-4.9607	6.1793	31.3961
5.6200	-4.8987	6.2298	31.4036
5.6300	-4.8361	6.2797	31.4111
5.6400	-4.7731	6.3289	31.4187
5.6500	-4.7095	6.3775	31.4263
5.6600	-4.6455	6.4255	31.4341
5.6700	-4.5810	6.4729	31.4418
5.6800	-4.5161	6.5195	31.4496
5.6900	-4.4506	6.5656	31.4575
5.7000	-4.3848	6.6110	31.4655
5.7100	-4.3184	6.6557	31.4735
5.7200	-4.2516	6.6997	31.4815
5.7300	-4.1844	6.7431	31.4896
5.7400	-4.1168	6.7858	31.4977
5.7500	-4.0487	6.8279	31.5059
5.7600	-3.9802	6.8692	31.5142
5.7700	-3.9113	6.9099	31.5225
5.7800	-3.8420	6.9499	31.5308
5.7900	-3.7723	6.9891	31.5392
5.8000	-3.7023	7.0277	31.5477
5.8100	-3.6318	7.0656	31.5562
5.8200	-3.5609	7.1027	31.5647
5.8300	-3.4897	7.1392	31.5733
5.8400	-3.4182	7.1749	31.5819
5.8500	-3.3462	7.2100	31.5905
5.8600	-3.2740	7.2443	31.5993
5.8700	-3.2014	7.2779	31.6080
5.8800	-3.1284	7.3107	31.6168
5.8900	-3.0552	7.3428	31.6256
5.9000	-2.9816	7.3742	31.6345
5.9100	-2.9077	7.4049	31.6434
5.9200	-2.8335	7.4348	31.6523
5.9300	-2.7590	7.4640	31.6613
5.9400	-2.6842	7.4924	31.6703
5.9500	-2.6091	7.5200	31.6793
5.9600	-2.5338	7.5470	31.6884
5.9700	-2.4582	7.5731	31.6975
5.9800	-2.3823	7.5985	31.7066
5.9900	-2.3062	7.6232	31.7158
6.0000	-2.2299	7.6471	31.7250
6.0100	-2.1533	7.6702	31.7342
6.0200	-2.0765	7.6925	31.7435
6.0300	-1.9994	7.7141	31.7528
6.0400	-1.9222	7.7349	31.7621
6.0500	-1.8448	7.7550	31.7714
6.0600	-1.7671	7.7742	31.7807
6.0700	-1.6893	7.7927	31.7901
6.0800	-1.6113	7.8104	31.7995
6.0900	-1.5331	7.8274	31.8089
6.1000	-1.4547	7.8435	31.8184
6.1100	-1.3762	7.8589	31.8278
6.1200	-1.2975	7.8734	31.8373
6.1300	-1.2187	7.8872	31.8468
6.1400	-1.1398	7.9002	31.8563
6.1500	-1.0607	7.9124	31.8658
6.1600	-0.9816	7.9238	31.8753
6.1700	-0.9023	7.9345	31.8849
6.1800	-0.8229	7.9443	31.8945
6.1900	-0.7434	7.9533	31.9040
6.2000	-0.6638	7.9616	31.9136
6.2100	-0.5842	7.9690	31.9232
6.2200	-0.5044	7.9757	31.9328
6.2300	-0.4246	7.9815	31.9424
6.2400	-0.3448	7.9866	31.9520
6.2500	-0.2649	7.9908	31.9616
6.2600	-0.1850	7.9943	31.9713
6.2700	-0.1050	7.9969	31.9809
6.2800	-0.0251	7.9988	31.9905
6.2900	0.0549	7.9998	32.0002
6.3000	0.1349	8.0001	32.0098
6.3100	0.2149	7.9995	32.0194
6.3200	0.2949	7.9982	32.0291
6.3300	0.3749	7.9961	32.0387
6.3400	0.4548	7.9931	32.0483
6.3500	0.5348	7.9894	32.0579
6.3600	0.6146	7.9848	32.0676
6.3700	0.6944	7.9795	32.0772
6.3800	0.7742	7.9733	32.0868
6.3900	0.8539	7.9664	32.0964
6.4000	0.9335	7.9587	32.1060
6.4100	1.0131	7.9501	32.1155
6.4200	1.0925	7.9408	32.1251
6.4300	1.1719	7.9307	32.1347
6.4400	1.2511	7.9198	32.1442
6.4500	1.3303	7.9081	32.1537
6.4600	1.4093	7.8956	32.1632
6.4700	1.4882	7.8823	32.1727
6.4800	1.5669	7.8682	32.1822
6.4900	1.6456	7.8534	32.1917
6.5000	1.7240	7.8377	32.2011
6.5100	1.8023	7.8213	32.2106
6.5200	1.8804	7.8041	32.2200
6.5300	1.9584	7.7861	32.2294
6.5400	2.0361	7.7673	32.2387
6.5500	2.1137	7.7478	32.2481
6.5600	2.1911	7.7275	32.2574
6.5700	2.2683	7.7064	32.2667
6.5800	2.3452	7.6845	32.2759
6.5900	2.4220	7.6619	32.2852
6.6000	2.4985	7.6385	32.2944
6.6100	2.5747	7.6143	32.3036
6.6200	2.6507	7.5894	32.3127
6.6300	2.7265	7.5637	32.3218
6.6400	2.8020	7.5373	32.3309
6.6500	2.8772	7.5101	32.3400
6.6600	2.9522	7.4821	32.3490
6.6700	3.0269	7.4535	32.3580
6.6800	3.1013	7.4240	32.3670
6.6900	3.1754	7.3938	32.3759
6.7000	3.2491	7.3629	32.3848
6.7100	3.3226	7.3313	32.3936
6.7200	3.3958	7.2989	32.4024
6.7300	3.4686	7.2658	32.4112
6.7400	3.5411	7.2319	32.4199
6.7500	3.6132	7.1973	32.4286
6.7600	3.6850	7.1621	32.4372
6.7700	3.7565	7.1261	32.4458
6.7800	3.8275	7.0893	32.4544
6.7900	3.8982	7.0519	32.4629
6.8000	3.9686	7.0138	32.4714
6.8100	4.0385	6.9750	32.4798
6.8200	4.1081	6.9354	32.4882
6.8300	4.1772	6.8952	32.4965
6.8400	4.2460	6.8543	32.5048
6.8500	4.3143	6.8127	32.5130
6.8600	4.3822	6.7704	32.5212
6.8700	4.4497	6.7275	32.5293
6.8800	4.5168	6.6838	32.5374
6.8900	4.5834	6.6395	32.5454
6.9000	4.6496	6.5946	32.5534
6.9100	4.7153	6.5490	32.5613
6.9200	4.7805	6.5027	32.5691
6.9300	4.8453	6.4558	32.5769
6.9400	4.9096	6.4082	32.5847
6.9500	4.9735	6.3600	32.5924
6.9600	5.0368	6.3111	32.6000
6.9700	5.0997	6.2616	32.6076
6.9800	5.1621	6.2115	32.6151
6.9900	5.2239	6.1608	32.6225
7.0000	5.2853	6.1095	32.6299
7.0100	5.3461	6.0575	32.6372
7.0200	5.4064	6.0050	32.6445
7.0300	5.4662	5.9518	32.6517
7.0400	5.5255	5.8980	32.6588
7.0500	5.5842	5.8437	32.6659
7.0600	5.6423	5.7888	32.6729
7.0700	5.6999	5.7333	32.6798
7.0800	5.7570	5.6772	32.6867
7.0900	5.8135	5.6205	32.6935
7.1000	5.8694	5.5633	32.7002
7.1100	5.9247	5.5056	32.7069
7.1200	5.9795	5.4472	32.7135
7.1300	6.0337	5.3884	32.7200
7.1400	6.0873	5.3290	32.7264
7.1500	6.1403	5.2690	32.7328
7.1600	6.1927	5.2086	32.7391
7.1700	6.2444	5.1476	32.7454
7.1800	6.2956	5.0861	32.7515
7.1900	6.3462	5.0241	32.7576
7.2000	6.3961	4.9616	32.7636
7.2100	6.4454	4.8986	32.7695
7.2200	6.4941	4.8351	32.7754
7.2300	6.5421	4.7711	32.7812
7.2400	6.5895	4.7067	32.7869
7.2500	6.6362	4.6417	32.7925
7.2600	6.6823	4.5763	32.7981
7.2700	6.7277	4.5105	32.8035
7.2800	6.7725	4.4442	32.8089
7.2900	6.8166	4.3775	32.8142
7.3000	6.8601	4.3103	32.8195
7.3100	6.9028	4.2427	32.8246
7.3200	6.9449	4.1746	32.8297
7.3300	6.9863	4.1062	32.8347
7.3400	7.0270	4.0373	32.8396
7.3500	7.0671	3.9681	32.8444
7.3600	7.1064	3.8984	32.8491
7.3700	7.1450	3.8283	32.8538
7.3800	7.1830	3.7579	32.8583
7.3900	7.2202	3.6871	32.8628
7.4000	7.2567	3.6159	32.8672
7.4100	7.2925	3.5444	32.8715
7.4200	7.3276	3.4725	32.8757
7.4300	7.3619	3.4002	32.8799
7.4400	7.3956	3.3276	32.8839
7.4500	7.4285	3.2547	32.8879
7.4600	7.4607	3.1815	32.8918
7.4700	7.4921	3.1079	32.8955
7.4800	7.5228	3.0340	32.8992
7.4900	7.5528	2.9599	32.9028
7.5000	7.5820	2.8854	32.9064
7.5100	7.6105	2.8106	32.9098
7.5200	7.6382	2.7356	32.9131
7.5300	7.6652	2.6603	32.9164
7.5400	7.6914	2.5847	32.9195
7.5500	7.7169	2.5089	32.9226
7.5600	7.7416	2.4328	32.9256
7.5700	7.7656	2.3565	32.9285
7.5800	7.7887	2.2799	32.9312
7.5900	7.8112	2.2031	32.9339
7.6000	7.8328	2.1261	32.9365
7.6100	7.8537	2.0488	32.9391
7.6200	7.8738	1.9714	32.9415
7.6300	7.8931	1.8938	32.9438
7.6400	7.9117	1.8160	32.9460
7.6500	7.9294	1.7380	32.9482
7.6600	7.9464	1.6598	32.9502
7.6700	7.9626	1.5814	32.9522
7.6800	7.9780	1.5029	32.9540
7.6900	7.9927	1.4243	32.9558
7.7000	8.0065	1.3455	32.9575
7.7100	8.0196	1.2666	32.9590
7.7200	8.0319	1.1875	32.9605
7.7300	8.0433	1.1083	32.9619
7.7400	8.0540	1.0291	32.9632
7.7500	8.0639	0.9497	32.9644
7.7600	8.0730	0.8702	32.9655
7.7700	8.0813	0.7906	32.9665
7.7800	8.0888	0.7110	32.9674
7.7900	8.0955	0.6313	32.9682
7.8000	8.1015	0.5515	32.9689
7.8100	8.1066	0.4716	32.9695
7.8200	8.1109	0.3918	32.9700
7.8300	8.1144	0.3118	32.9704
7.8400	8.1171	0.2319	32.9708
7.8500	8.1190	0.1519	32.9710
7.8600	8.1202	0.0719	32.9711
7.8700	8.1205	-0.0081	32.9712
7.8800	8.1200	-0.0881	32.9711
7.8900	8.1187	-0.1681	32.9710
7.9000	8.1166	-0.2480	32.9707
7.9100	8.1138	-0.3280	32.9704
7.9200	8.1101	-0.4079	32.9699
7.9300	8.1056	-0.4878	32.9694
7.9400	8.1003	-0.5676	32.9688
7.9500	8.0943	-0.6474	32.9680
7.9600	8.0874	-0.7271	32.9672
7.9700	8.0797	-0.8067	32.9663
7.9800	8.0712	-0.8863	32.9653
7.9900	8.0620	-0.9657	32.9641
8.0000	8.0519	-1.0451	32.9629
8.0100	8.0411	-1.1243	32.9616
8.0200	8.0294	-1.2035	32.9602
8.0300	8.0170	-1.2825	32.9587
8.0400	8.0038	-1.3614	32.9571
8.0500	7.9898	-1.4402	32.9554
8.0600	7.9750	-1.5188	32.9537
8.0700	7.9594	-1.5973	32.9518
8.0800	7.9431	-1.6756	32.9498
8.0900	7.9259	-1.7537	32.9478
8.1000	7.9080	-1.8317	32.9456
8.1100	7.8893	-1.9095	32.9433
8.1200	7.8698	-1.9871	32.9410
8.1300	7.8495	-2.0645	32.9386
8.1400	7.8285	-2.1416	32.9360
8.1500	7.8067	-2.2186	32.9334
8.1600	7.7841	-2.2954	32.9307
8.1700	7.7608	-2.3719	32.9279
8.1800	7.7367	-2.4482	32.9250
8.1900	7.7118	-2.5242	32.9220
8.2000	7.6862	-2.6000	32.9189
8.2100	7.6598	-2.6755	32.9157
8.2200	7.6327	-2.7508	32.9124
8.2300	7.6048	-2.8258	32.9091
8.2400	7.5762	-2.9005	32.9056
8.2500	7.5468	-2.9749	32.9021
8.2600	7.5167	-3.0490	32.8985
8.2700	7.4858	-3.1228	32.8948
8.2800	7.4542	-3.1963	32.8910
8.2900	7.4219	-3.2695	32.8871
8.3000	7.3888	-3.3423	32.8831
8.3100	7.3551	-3.4148	32.8790
8.3200	7.3206	-3.4870	32.8749
8.3300	7.2853	-3.5588	32.8706
8.3400	7.2494	-3.6303	32.8663
8.3500	7.2127	-3.7014	32.8619
8.3600	7.1754	-3.7721	32.8574
8.3700	7.1373	-3.8425	32.8528
8.3800	7.0985	-3.9125	32.8481
8.3900	7.0590	-3.9821	32.8434
8.4000	7.0189	-4.0512	32.8385
8.4100	6.9780	-4.1200	32.8336
8.4200	6.9365	-4.1884	32.8286
8.4300	6.8942	-4.2563	32.8235
8.4400	6.8513	-4.3239	32.8183
8.4500	6.8078	-4.3910	32.8131
8.4600	6.7635	-4.4576	32.8078
8.4700	6.7186	-4.5238	32.8024
8.4800	6.6731	-4.5896	32.7969
8.4900	6.6268	-4.6549	32.7913
8.5000	6.5800	-4.7197	32.7857
8.5100	6.5324	-4.7840	32.7799
8.5200	6.4843	-4.8479	32.7741
8.5300	6.4355	-4.9113	32.7682
8.5400	6.3861	-4.9742	32.7623
8.5500	6.3360	-5.0366	32.7563
8.5600	6.2853	-5.0985	32.7502
8.5700	6.2340	-5.1599	32.7440
8.5800	6.1821	-5.2208	32.7377
8.5900	6.1296	-5.2812	32.7314
8.6000	6.0765	-5.3410	32.7250
8.6100	6.0228	-5.4003	32.7185
8.6200	5.9685	-5.4590	32.7120
8.6300	5.9136	-5.5172	32.7054
8.6400	5.8582	-5.5749	32.6987
8.6500	5.8021	-5.6320	32.6919
8.6600	5.7455	-5.6885	32.6851
8.6700	5.6884	-5.7445	32.6782
8.6800	5.6306	-5.7999	32.6713
8.6900	5.5724	-5.8547	32.6643
8.7000	5.5135	-5.9089	32.6572
8.7100	5.4542	-5.9625	32.6500
8.7200	5.3943	-6.0156	32.6428
8.7300	5.3339	-6.0680	32.6355
8.7400	5.2729	-6.1198	32.6282
8.7500	5.2115	-6.1711	32.6208
8.7600	5.1495	-6.2217	32.6133
8.7700	5.0871	-6.2716	32.6058
8.7800	5.0241	-6.3210	32.5982
8.7900	4.9606	-6.3697	32.5906
8.8000	4.8967	-6.4178	32.5829
8.8100	4.8323	-6.4652	32.5751
8.8200	4.7674	-6.5120	32.5673
8.8300	4.7021	-6.5582	32.5594
8.8400	4.6362	-6.6036	32.5515
8.8500	4.5700	-6.6485	32.5435
8.8600	4.5033	-6.6926	32.5354
8.8700	4.4361	-6.7361	32.5273
8.8800	4.3686	-6.7789	32.5192
8.8900	4.3006	-6.8211	32.5110
8.9000	4.2321	-6.8625	32.5028
8.9100	4.1633	-6.9033	32.4945
8.9200	4.0941	-6.9434	32.4861
8.9300	4.0244	-6.9828	32.4777
8.9400	3.9544	-7.0215	32.4693
8.9500	3.8840	-7.0595	32.4608
8.9600	3.8132	-7.0967	32.4523
8.9700	3.7421	-7.1333	32.4437
8.9800	3.6706	-7.1692	32.4351
8.9900	3.5987	-7.2043	32.4264
9.0000	3.5265	-7.2387	32.4177
9.0100	3.4539	-7.2724	32.4090
9.0200	3.3810	-7.3054	32.4002
9.0300	3.3078	-7.3376	32.3913
9.0400	3.2343	-7.3691	32.3825
9.0500	3.1605	-7.3999	32.3736
9.0600	3.0863	-7.4299	32.3646
9.0700	3.0119	-7.4592	32.3557
9.0800	2.9371	-7.4878	32.3467
9.0900	2.8621	-7.5156	32.3376
9.1000	2.7868	-7.5426	32.3285
9.1100	2.7113	-7.5689	32.3194
9.1200	2.6354	-7.5944	32.3103
9.1300	2.5594	-7.6192	32.3011
9.1400	2.4831	-7.6432	32.2919
9.1500	2.4065	-7.6664	32.2827
9.1600	2.3297	-7.6889	32.2734
9.1700	2.2527	-7.7106	32.2641
9.1800	2.1755	-7.7315	32.2548
9.1900	2.0981	-7.7517	32.2455
9.2000	2.0205	-7.7711	32.2361
9.2100	1.9427	-7.7897	32.2268
9.2200	1.8647	-7.8075	32.2174
9.2300	1.7865	-7.8246	32.2079
9.2400	1.7082	-7.8409	32.1985
9.2500	1.6297	-7.8563	32.1890
9.2600	1.5511	-7.8710	32.1795
9.2700	1.4723	-7.8849	32.1700
9.2800	1.3934	-7.8981	32.1605
9.2900	1.3144	-7.9104	32.1510
9.3000	1.2352	-7.9219	32.1414
9.3100	1.1559	-7.9327	32.1319
9.3200	1.0766	-7.9426	32.1223
9.3300	0.9971	-7.9518	32.1127
9.3400	0.9175	-7.9602	32.1031
9.3500	0.8379	-7.9677	32.0935
9.3600	0.7582	-7.9745	32.0839
9.3700	0.6784	-7.9805	32.0743
9.3800	0.5986	-7.9857	32.0647
9.3900	0.5187	-7.9901	32.0550
9.4000	0.4388	-7.9936	32.0454
9.4100	0.3588	-7.9964	32.0357
9.4200	0.2788	-7.9984	32.0261
9.4300	0.1988	-7.9996	32.0164
9.4400	0.1189	-8.0000	32.0068
9.4500	0.0389	-7.9995	31.9971
9.4600	-0.0411	-7.9983	31.9875
9.4700	-0.1211	-7.9963	31.9778
9.4800	-0.2011	-7.9935	31.9682
9.4900	-0.2810	-7.9899	31.9586
9.5000	-0.3609	-7.9855	31.9489
9.5100	-0.4407	-7.9803	31.9393
9.5200	-0.5205	-7.9742	31.9297
9.5300	-0.6002	-7.9674	31.9201
9.5400	-0.6798	-7.9598	31.9104
9.5500	-0.7594	-7.9514	31.9008
9.5600	-0.8388	-7.9422	31.8913
9.5700	-0.9182	-7.9322	31.8817
9.5800	-0.9975	-7.9214	31.8721
9.5900	-1.0766	-7.9099	31.8626
9.6000	-1.1557	-7.8975	31.8530
9.6100	-1.2346	-7.8843	31.8435
9.6200	-1.3133	-7.8704	31.8340
9.6300	-1.3920	-7.8557	31.8245
9.6400	-1.4704	-7.8401	31.8150
9.6500	-1.5488	-7.8238	31.8056
9.6600	-1.6269	-7.8068	31.7962
9.6700	-1.7049	-7.7889	31.7868
9.6800	-1.7827	-7.7702	31.7774
9.6900	-1.8603	-7.7508	31.7680
9.7000	-1.9377	-7.7306	31.7587
9.7100	-2.0149	-7.7097	31.7493
9.7200	-2.0919	-7.6879	31.7401
9.7300	-2.1687	-7.6654	31.7308
9.7400	-2.2452	-7.6421	31.7216
9.7500	-2.3215	-7.6181	31.7123
9.7600	-2.3976	-7.5933	31.7032
9.7700	-2.4734	-7.5677	31.6940
9.7800	-2.5489	-7.5414	31.6849
9.7900	-2.6242	-7.5143	31.6758
9.8000	-2.6992	-7.4865	31.6668
9.8100	-2.7739	-7.4579	31.6577
9.8200	-2.8483	-7.4286	31.6488
9.8300	-2.9225	-7.3986	31.6398
9.8400	-2.9963	-7.3678	31.6309
9.8500	-3.0698	-7.3362	31.6220
9.8600	-3.1430	-7.3040	31.6132
9.8700	-3.2159	-7.2709	31.6044
9.8800	-3.2885	-7.2372	31.5956
9.8900	-3.3607	-7.2028	31.5869
9.9000	-3.4325	-7.1676	31.5782
9.9100	-3.5040	-7.1317	31.5696
9.9200	-3.5751	-7.0951	31.5610
9.9300	-3.6459	-7.0578	31.5525
9.9400	-3.7163	-7.0198	31.5440
9.9500	-3.7863	-6.9811	31.5355
9.9600	-3.8559	-6.9416	31.5271
9.9700	-3.9251	-6.9015	31.5188
9.9800	-3.9939	-6.8607	31.5105
9.9900	-4.0623	-6.8192	31.5022
10.0000	-4.1303	-6.7771	31.4940
10.0100	-4.1979	-6.7342	31.4858