# Time	Position	Velocity	Total Energy
0.0000	0.0000	4.0000	8.0000
0.0010	0.0040	4.0000	8.0000
0.0020	0.0080	4.0000	8.0000
0.0030	0.0120	4.0000	8.0000
0.0040	0.0160	4.0000	8.0000
0.0050	0.0200	4.0000	8.0000
0.0060	0.0240	3.9999	8.0000
0.0070	0.0280	3.9999	8.0000
0.0080	0.0320	3.9999	8.0000
0.0090	0.0360	3.9998	8.0000
0.0100	0.0400	3.9998	8.0000
0.0110	0.0440	3.9998	8.0000
0.0120	0.0480	3.9997	8.0000
0.0130	0.0520	3.9997	8.0000
0.0140	0.0560	3.9996	8.0000
0.0150	0.0600	3.9996	8.0000
0.0160	0.0640	3.9995	8.0000
0.0170	0.0680	3.9994	8.0000
0.0180	0.0720	3.9994	8.0000
0.0190	0.0760	3.9993	8.0000
0.0200	0.0800	3.9992	8.0000
0.0210	0.0840	3.9991	8.0000
0.0220	0.0880	3.9990	8.0000
0.0230	0.0920	3.9989	8.0000
0.0240	0.0960	3.9988	8.0000
0.0250	0.1000	3.9988	8.0000
0.0260	0.1040	3.9986	8.0000
0.0270	0.1080	3.9985	8.0000
0.0280	0.1120	3.9984	8.0000
0.0290	0.1160	3.9983	8.0000
0.0300	0.1200	3.9982	8.0000
0.0310	0.1240	3.9981	8.0000
0.0320	0.1280	3.9980	8.0000
0.0330	0.1320	3.9978	8.0000
0.0340	0.1360	3.9977	8.0000
0.0350	0.1400	3.9976	8.0000
0.0360	0.1440	3.9974	8.0000
0.0370	0.1480	3.9973	8.0000
0.0380	0.1520	3.9971	8.0000
0.0390	0.1560	3.9970	8.0000
0.0400	0.1600	3.9968	8.0000
0.0410	0.1640	3.9966	8.0000
0.0420	0.1680	3.9965	8.0000
0.0430	0.1719	3.9963	8.0000
0.0440	0.1759	3.9961	8.0000
0.0450	0.1799	3.9960	8.0000
0.0460	0.1839	3.9958	8.0000
0.0470	0.1879	3.9956	8.0000
0.0480	0.1919	3.9954	8.0000
0.0490	0.1959	3.9952	8.0000
0.0500	0.1999	3.9950	8.0000
0.0510	0.2039	3.9948	8.0000
0.0520	0.2079	3.9946	8.0000
0.0530	0.2119	3.9944	8.0000
0.0540	0.2159	3.9942	8.0000
0.0550	0.2199	3.9940	8.0000
0.0560	0.2239	3.9937	8.0000
0.0570	0.2279	3.9935	8.0000
0.0580	0.2319	3.9933	8.0000
0.0590	0.2359	3.9930	8.0000
0.0600	0.2399	3.9928	8.0000
0.0610	0.2438	3.9926	8.0000
0.0620	0.2478	3.9923	8.0000
0.0630	0.2518	3.9921	8.0000
0.0640	0.2558	3.9918	8.0000
0.0650	0.2598	3.9916	8.0000
0.0660	0.2638	3.9913	8.0000
0.0670	0.2678	3.9910	8.0000
0.0680	0.2718	3.9908	8.0000
0.0690	0.2758	3.9905	8.0000
0.0700	0.2798	3.9902	8.0000
0.0710	0.2838	3.9899	8.0000
0.0720	0.2878	3.9896	8.0000
0.0730	0.2917	3.9893	8.0000
0.0740	0.2957	3.9891	8.0000
0.0750	0.2997	3.9888	8.0000
0.0760	0.3037	3.9885	8.0000
0.0770	0.3077	3.9881	8.0000
0.0780	0.3117	3.9878	8.0000
0.0790	0.3157	3.9875	8.0000
0.0800	0.3197	3.9872	8.0000
0.0810	0.3236	3.9869	8.0000
0.0820	0.3276	3.9866	8.0000
0.0830	0.3316	3.9862	8.0000
0.0840	0.3356	3.9859	8.0000
0.0850	0.3396	3.9856	8.0000
0.0860	0.3436	3.9852	8.0000
0.0870	0.3476	3.9849	8.0000
0.0880	0.3515	3.9845	8.0000
0.0890	0.3555	3.9842	8.0000
0.0900	0.3595	3.9838	8.0000
0.0910	0.3635	3.9834	8.0000
0.0920	0.3675	3.9831	8.0000
0.0930	0.3715	3.9827	8.0000
0.0940	0.3754	3.9823	8.0000
0.0950	0.3794	3.9820	8.0000
0.0960	0.3834	3.9816	8.0000
0.0970	0.3874	3.9812	8.0000
0.0980	0.3914	3.9808	8.0000
0.0990	0.3954	3.9804	8.0000
0.1000	0.3993	3.9800	8.0000
0.1010	0.4033	3.9796	8.0000
0.1020	0.4073	3.9792	8.0000
0.1030	0.4113	3.9788	8.0000
0.1040	0.4153	3.9784	8.0000
0.1050	0.4192	3.9780	8.0000
0.1060	0.4232	3.9775	8.0000
0.1070	0.4272	3.9771	8.0000
0.1080	0.4312	3.9767	8.0000
0.1090	0.4351	3.9763	8.0000
0.1100	0.4391	3.9758	8.0000
0.1110	0.4431	3.9754	8.0000
0.1120	0.4471	3.9749	8.0000
0.1130	0.4510	3.9745	8.0000
0.1140	0.4550	3.9740	8.0000
0.1150	0.4590	3.9736	8.0000
0.1160	0.4630	3.9731	8.0000
0.1170	0.4669	3.9727	8.0000
0.1180	0.4709	3.9722	8.0000
0.1190	0.4749	3.9717	8.0000
0.1200	0.4788	3.9712	8.0000
0.1210	0.4828	3.9708	8.0000
0.1220	0.4868	3.9703	8.0000
0.1230	0.4908	3.9698	8.0000
0.1240	0.4947	3.9693	8.0000
0.1250	0.4987	3.9688	8.0000
0.1260	0.5027	3.9683	8.0000
0.1270	0.5066	3.9678	8.0000
0.1280	0.5106	3.9673	8.0000
0.1290	0.5146	3.9668	8.0000
0.1300	0.5185	3.9662	8.0000
0.1310	0.5225	3.9657	8.0000
0.1320	0.5265	3.9652	8.0000
0.1330	0.5304	3.9647	8.0000
0.1340	0.5344	3.9641	8.0000
0.1350	0.5384	3.9636	8.0000
0.1360	0.5423	3.9631	8.0000
0.1370	0.5463	3.9625	8.0000
0.1380	0.5502	3.9620	8.0000
0.1390	0.5542	3.9614	8.0000
0.1400	0.5582	3.9609	8.0000
0.1410	0.5621	3.9603	8.0000
0.1420	0.5661	3.9597	8.0000
0.1430	0.5701	3.9592	8.0000
0.1440	0.5740	3.9586	8.0000
0.1450	0.5780	3.9580	8.0000
0.1460	0.5819	3.9574	8.0000
0.1470	0.5859	3.9569	8.0000
0.1480	0.5898	3.9563	8.0000
0.1490	0.5938	3.9557	8.0000
0.1500	0.5978	3.9551	8.0000
0.1510	0.6017	3.9545	8.0000
0.1520	0.6057	3.9539	8.0000
0.1530	0.6096	3.9533	8.0000
0.1540	0.6136	3.9527	8.0000
0.1550	0.6175	3.9520	8.0000
0.1560	0.6215	3.9514	8.0000
0.1570	0.6254	3.9508	8.0000
0.1580	0.6294	3.9502	8.0000
0.1590	0.6333	3.9495	8.0000
0.1600	0.6373	3.9489	8.0000
0.1610	0.6412	3.9483	8.0000
0.1620	0.6452	3.9476	8.0000
0.1630	0.6491	3.9470	8.0000
0.1640	0.6531	3.9463	8.0000
0.1650	0.6570	3.9457	8.0000
0.1660	0.6610	3.9450	8.0000
0.1670	0.6649	3.9444	8.0000
0.1680	0.6688	3.9437	8.0000
0.1690	0.6728	3.9430	8.0000
0.1700	0.6767	3.9423	8.0000
0.1710	0.6807	3.9417	8.0000
0.1720	0.6846	3.9410	8.0000
0.1730	0.6886	3.9403	8.0000
0.1740	0.6925	3.9396	8.0000
0.1750	0.6964	3.9389	8.0000
0.1760	0.7004	3.9382	8.0000
0.1770	0.7043	3.9375	8.0000
0.1780	0.7082	3.9368	8.0000
0.1790	0.7122	3.9361	8.0000
0.1800	0.7161	3.9354	8.0000
0.1810	0.7201	3.9347	8.0000
0.1820	0.7240	3.9339	8.0000
0.1830	0.7279	3.9332	8.0000
0.1840	0.7319	3.9325	8.0000
0.1850	0.7358	3.9317	8.0000
0.1860	0.7397	3.9310	8.0000
0.1870	0.7436	3.9303	8.0000
0.1880	0.7476	3.9295	8.0000
0.1890	0.7515	3.9288	8.0000
0.1900	0.7554	3.9280	8.0000
0.1910	0.7594	3.9273	8.0000
0.1920	0.7633	3.9265	8.0000
0.1930	0.7672	3.9257	8.0000
0.1940	0.7711	3.9250	8.0000
0.1950	0.7751	3.9242	8.0000
0.1960	0.7790	3.9234	8.0000
0.1970	0.7829	3.9226	8.0000
0.1980	0.7868	3.9218	8.0000
0.1990	0.7908	3.9211	8.0000
0.2000	0.7947	3.9203	8.0000
0.2010	0.7986	3.9195	8.0000
0.2020	0.8025	3.9187	8.0000
0.2030	0.8064	3.9179	8.0000
0.2040	0.8104	3.9171	8.0000
0.2050	0.8143	3.9162	8.0000
0.2060	0.8182	3.9154	8.0000
0.2070	0.8221	3.9146	8.0000
0.2080	0.8260	3.9138	8.0000
0.2090	0.8299	3.9130	8.0000
0.2100	0.8338	3.9121	8.0000
0.2110	0.8378	3.9113	8.0000
0.2120	0.8417	3.9104	8.0000
0.2130	0.8456	3.9096	8.0000
0.2140	0.8495	3.9088	8.0000
0.2150	0.8534	3.9079	8.0000
0.2160	0.8573	3.9071	8.0000
0.2170	0.8612	3.9062	8.0000
0.2180	0.8651	3.9053	8.0000
0.2190	0.8690	3.9045	8.0000
0.2200	0.8729	3.9036	8.0000
0.2210	0.8768	3.9027	8.0000
0.2220	0.8807	3.9018	8.0000
0.2230	0.8846	3.9010	8.0000
0.2240	0.8885	3.9001	8.0000
0.2250	0.8924	3.8992	8.0000
0.2260	0.8963	3.8983	8.0000
0.2270	0.9002	3.8974	8.0000
0.2280	0.9041	3.8965	8.0000
0.2290	0.9080	3.8956	8.0000
0.2300	0.9119	3.8947	8.0000
0.2310	0.9158	3.8938	8.0000
0.2320	0.9197	3.8928	8.0000
0.2330	0.9236	3.8919	8.0000
0.2340	0.9275	3.8910	8.0000
0.2350	0.9314	3.8901	8.0000
0.2360	0.9353	3.8891	8.0000
0.2370	0.9392	3.8882	8.0000
0.2380	0.9430	3.8872	8.0000
0.2390	0.9469	3.8863	8.0000
0.2400	0.9508	3.8854	8.0000
0.2410	0.9547	3.8844	8.0000
0.2420	0.9586	3.8834	8.0000
0.2430	0.9625	3.8825	8.0000
0.2440	0.9663	3.8815	8.0000
0.2450	0.9702	3.8805	8.0000
0.2460	0.9741	3.8796	8.0000
0.2470	0.9780	3.8786	8.0000
0.2480	0.9819	3.8776	8.0000
0.2490	0.9857	3.8766	8.0000
0.2500	0.9896	3.8756	8.0000
0.2510	0.9935	3.8747	8.0000
0.2520	0.9974	3.8737	8.0000
0.2530	1.0012	3.8727	8.0000
0.2540	1.0051	3.8717	8.0000
0.2550	1.0090	3.8707	8.0000
0.2560	1.0129	3.8696	8.0000
0.2570	1.0167	3.8686	8.0000
0.2580	1.0206	3.8676	8.0000
0.2590	1.0245	3.8666	8.0000
0.2600	1.0283	3.8656	8.0000
0.2610	1.0322	3.8645	8.0000
0.2620	1.0361	3.8635	8.0000
0.2630	1.0399	3.8625	8.0000
0.2640	1.0438	3.8614	8.0000
0.2650	1.0476	3.8604	8.0000
0.2660	1.0515	3.8593	8.0000
0.2670	1.0554	3.8583	8.0000
0.2680	1.0592	3.8572	8.0000
0.2690	1.0631	3.8561	8.0000
0.2700	1.0669	3.8551	8.0000
0.2710	1.0708	3.8540	8.0000
0.2720	1.0746	3.8529	8.0000
0.2730	1.0785	3.8519	8.0000
0.2740	1.0823	3.8508	8.0000
0.2750	1.0862	3.8497	8.0000
0.2760	1.0900	3.8486	8.0000
0.2770	1.0939	3.8475	8.0000
0.2780	1.0977	3.8464	8.0000
0.2790	1.1016	3.8453	8.0000
0.2800	1.1054	3.8442	8.0000
0.2810	1.1093	3.8431	8.0000
0.2820	1.1131	3.8420	8.0000
0.2830	1.1170	3.8409	8.0000
0.2840	1.1208	3.8398	8.0000
0.2850	1.1246	3.8386	8.0000
0.2860	1.1285	3.8375	8.0000
0.2870	1.1323	3.8364	8.0000
0.2880	1.1361	3.8353	8.0000
0.2890	1.1400	3.8341	8.0000
0.2900	1.1438	3.8330	8.0000
0.2910	1.1476	3.8318	8.0000
0.2920	1.1515	3.8307	8.0000
0.2930	1.1553	3.8295	8.0000
0.2940	1.1591	3.8284	8.0000
0.2950	1.1630	3.8272	8.0000
0.2960	1.1668	3.8260	8.0000
0.2970	1.1706	3.8249	8.0000
0.2980	1.1744	3.8237	8.0000
0.2990	1.1783	3.8225	8.0000
0.3000	1.1821	3.8213	8.0000
0.3010	1.1859	3.8202	8.0000
0.3020	1.1897	3.8190	8.0000
0.3030	1.1935	3.8178	8.0000
0.3040	1.1974	3.8166	8.0000
0.3050	1.2012	3.8154	8.0000
0.3060	1.2050	3.8142	8.0000
0.3070	1.2088	3.8130	8.0000
0.3080	1.2126	3.8118	8.0000
0.3090	1.2164	3.8106	8.0000
0.3100	1.2202	3.8093	8.0000
0.3110	1.2240	3.8081	8.0000
0.3120	1.2279	3.8069	8.0000
0.3130	1.2317	3.8057	8.0000
0.3140	1.2355	3.8044	8.0000
0.3150	1.2393	3.8032	8.0000
0.3160	1.2431	3.8019	8.0000
0.3170	1.2469	3.8007	8.0000
0.3180	1.2507	3.7995	8.0000
0.3190	1.2545	3.7982	8.0000
0.3200	1.2583	3.7969	8.0000
0.3210	1.2621	3.7957	8.0000
0.3220	1.2659	3.7944	8.0000
0.3230	1.2697	3.7931	8.0000
0.3240	1.2734	3.7919	8.0000
0.3250	1.2772	3.7906	8.0000
0.3260	1.2810	3.7893	8.0000
0.3270	1.2848	3.7880	8.0000
0.3280	1.2886	3.7868	8.0000
0.3290	1.2924	3.7855	8.0000
0.3300	1.2962	3.7842	8.0000
0.3310	1.3000	3.7829	8.0000
0.3320	1.3037	3.7816	8.0000
0.3330	1.3075	3.7803	8.0000
0.3340	1.3113	3.7790	8.0000
0.3350	1.3151	3.7776	8.0000
0.3360	1.3189	3.7763	8.0000
0.3370	1.3226	3.7750	8.0000
0.3380	1.3264	3.7737	8.0000
0.3390	1.3302	3.7724	8.0000
0.3400	1.3339	3.7710	8.0000
0.3410	1.3377	3.7697	8.0000
0.3420	1.3415	3.7683	8.0000
0.3430	1.3453	3.7670	8.0000
0.3440	1.3490	3.7657	8.0000
0.3450	1.3528	3.7643	8.0000
0.3460	1.3566	3.7629	8.0000
0.3470	1.3603	3.7616	8.0000
0.3480	1.3641	3.7602	8.0000
0.3490	1.3678	3.7589	8.0000
0.3500	1.3716	3.7575	8.0000
0.3510	1.3753	3.7561	8.0000
0.3520	1.3791	3.7547	8.0000
0.3530	1.3829	3.7534	8.0000
0.3540	1.3866	3.7520	8.0000
0.3550	1.3904	3.7506	8.0000
0.3560	1.3941	3.7492	8.0000
0.3570	1.3979	3.7478	8.0000
0.3580	1.4016	3.7464	8.0000
0.3590	1.4054	3.7450	8.0000
0.3600	1.4091	3.7436	8.0000
0.3610	1.4128	3.7422	8.0000
0.3620	1.4166	3.7408	8.0000
0.3630	1.4203	3.7393	8.0000
0.3640	1.4241	3.7379	8.0000
0.3650	1.4278	3.7365	8.0000
0.3660	1.4315	3.7351	8.0000
0.3670	1.4353	3.7336	8.0000
0.3680	1.4390	3.7322	8.0000
0.3690	1.4427	3.7308	8.0000
0.3700	1.4465	3.7293	8.0000
0.3710	1.4502	3.7279	8.0000
0.3720	1.4539	3.7264	8.0000
0.3730	1.4576	3.7250	8.0000
0.3740	1.4614	3.7235	8.0000
0.3750	1.4651	3.7220	8.0000
0.3760	1.4688	3.7206	8.0000
0.3770	1.4725	3.7191	8.0000
0.3780	1.4762	3.7176	8.0000
0.3790	1.4800	3.7161	8.0000
0.3800	1.4837	3.7147	8.0000
0.3810	1.4874	3.7132	8.0000
0.3820	1.4911	3.7117	8.0000
0.3830	1.4948	3.7102	8.0000
0.3840	1.4985	3.7087	8.0000
0.3850	1.5022	3.7072	8.0000
0.3860	1.5059	3.7057	8.0000
0.3870	1.5096	3.7042	8.0000
0.3880	1.5134	3.7027	8.0000
0.3890	1.5171	3.7012	8.0000
0.3900	1.5208	3.6996	8.0000
0.3910	1.5245	3.6981	8.0000
0.3920	1.5282	3.6966	8.0000
0.3930	1.5318	3.6951	8.0000
0.3940	1.5355	3.6935	8.0000
0.3950	1.5392	3.6920	8.0000
0.3960	1.5429	3.6904	8.0000
0.3970	1.5466	3.6889	8.0000
0.3980	1.5503	3.6874	8.0000
0.3990	1.5540	3.6858	8.0000
0.4000	1.5577	3.6842	8.0000
0.4010	1.5614	3.6827	8.0000
0.4020	1.5650	3.6811	8.0000
0.4030	1.5687	3.6796	8.0000
0.4040	1.5724	3.6780	8.0000
0.4050	1.5761	3.6764	8.0000
0.4060	1.5798	3.6748	8.0000
0.4070	1.5834	3.6733	8.0000
0.4080	1.5871	3.6717	8.0000
0.4090	1.5908	3.6701	8.0000
0.4100	1.5944	3.6685	8.0000
0.4110	1.5981	3.6669	8.0000
0.4120	1.6018	3.6653	8.0000
0.4130	1.6054	3.6637	8.0000
0.4140	1.6091	3.6621	8.0000
0.4150	1.6128	3.6605	8.0000
0.4160	1.6164	3.6589	8.0000
0.4170	1.6201	3.6572	8.0000
0.4180	1.6237	3.6556	8.0000
0.4190	1.6274	3.6540	8.0000
0.4200	1.6310	3.6524	8.0000
0.4210	1.6347	3.6507	8.0000
0.4220	1.6383	3.6491	8.0000
0.4230	1.6420	3.6474	8.0000
0.4240	1.6456	3.6458	8.0000
0.4250	1.6493	3.6442	8.0000
0.4260	1.6529	3.6425	8.0000
0.4270	1.6566	3.6408	8.0000
0.4280	1.6602	3.6392	8.0000
0.4290	1.6638	3.6375	8.0000
0.4300	1.6675	3.6359	8.0000
0.4310	1.6711	3.6342	8.0000
0.4320	1.6748	3.6325	8.0000
0.4330	1.6784	3.6308	8.0000
0.4340	1.6820	3.6292	8.0000
0.4350	1.6856	3.6275	8.0000
0.4360	1.6893	3.6258	8.0000
0.4370	1.6929	3.6241	8.0000
0.4380	1.6965	3.6224	8.0000
0.4390	1.7001	3.6207	8.0000
0.4400	1.7038	3.6190	8.0000
0.4410	1.7074	3.6173	8.0000
0.4420	1.7110	3.6156	8.0000
0.4430	1.7146	3.6139	8.0000
0.4440	1.7182	3.6122	8.0000
0.4450	1.7218	3.6104	8.0000
0.4460	1.7254	3.6087	8.0000
0.4470	1.7290	3.6070	8.0000
0.4480	1.7327	3.6053	8.0000
0.4490	1.7363	3.6035	8.0000
0.4500	1.7399	3.6018	8.0000
0.4510	1.7435	3.6000	8.0000
0.4520	1.7471	3.5983	8.0000
0.4530	1.7507	3.5966	8.0000
0.4540	1.7543	3.5948	8.0000
0.4550	1.7578	3.5930	8.0000
0.4560	1.7614	3.5913	8.0000
0.4570	1.7650	3.5895	8.0000
0.4580	1.7686	3.5878	8.0000
0.4590	1.7722	3.5860	8.0000
0.4600	1.7758	3.5842	8.0000
0.4610	1.7794	3.5824	8.0000
0.4620	1.7830	3.5807	8.0000
0.4630	1.7865	3.5789	8.0000
0.4640	1.7901	3.5771	8.0000
0.4650	1.7937	3.5753	8.0000
0.4660	1.7973	3.5735	8.0000
0.4670	1.8008	3.5717	8.0000
0.4680	1.8044	3.5699	8.0000
0.4690	1.8080	3.5681	8.0000
0.4700	1.8115	3.5663	8.0000
0.4710	1.8151	3.5645	8.0000
0.4720	1.8187	3.5626	8.0000
0.4730	1.8222	3.5608	8.0000
0.4740	1.8258	3.5590	8.0000
0.4750	1.8294	3.5572	8.0000
0.4760	1.8329	3.5553	8.0000
0.4770	1.8365	3.5535	8.0000
0.4780	1.8400	3.5517	8.0000
0.4790	1.8436	3.5498	8.0000
0.4800	1.8471	3.5480	8.0000
0.4810	1.8507	3.5461	8.0000
0.4820	1.8542	3.5443	8.0000
0.4830	1.8578	3.5424	8.0000
0.4840	1.8613	3.5406	8.0000
0.4850	1.8648	3.5387	8.0000
0.4860	1.8684	3.5368	8.0000
0.4870	1.8719	3.5350	8.0000
0.4880	1.8754	3.5331	8.0000
0.4890	1.8790	3.5312	8.0000
0.4900	1.8825	3.5293	8.0000
0.4910	1.8860	3.5274	8.0000
0.4920	1.8896	3.5256	8.0000
0.4930	1.8931	3.5237	8.0000
0.4940	1.8966	3.5218	8.0000
0.4950	1.9001	3.5199	8.0000
0.4960	1.9036	3.5180	8.0000
0.4970	1.9072	3.5161	8.0000
0.4980	1.9107	3.5142	8.0000
0.4990	1.9142	3.5122	8.0000
0.5000	1.9177	3.5103	8.0000
0.5010	1.9212	3.5084	8.0000
0.5020	1.9247	3.5065	8.0000
0.5030	1.9282	3.5046	8.0000
0.5040	1.9317	3.5026	8.0000
0.5050	1.9352	3.5007	8.0000
0.5060	1.9387	3.4988	8.0000
0.5070	1.9422	3.4968	8.0000
0.5080	1.9457	3.4949	8.0000
0.5090	1.9492	3.4929	8.0000
0.5100	1.9527	3.4910	8.0000
0.5110	1.9562	3.4890	8.0000
0.5120	1.9597	3.4871	8.0000
0.5130	1.9632	3.4851	8.0000
0.5140	1.9667	3.4831	8.0000
0.5150	1.9701	3.4812	8.0000
0.5160	1.9736	3.4792	8.0000
0.5170	1.9771	3.4772	8.0000
0.5180	1.9806	3.4752	8.0000
0.5190	1.9840	3.4733	8.0000
0.5200	1.9875	3.4713	8.0000
0.5210	1.9910	3.4693	8.0000
0.5220	1.9945	3.4673	8.0000
0.5230	1.9979	3.4653	8.0000
0.5240	2.0014	3.4633	8.0000
0.5250	2.0049	3.4613	8.0000
0.5260	2.0083	3.4593	8.0000
0.5270	2.0118	3.4573	8.0000
0.5280	2.0152	3.4553	8.0000
0.5290	2.0187	3.4532	8.0000
0.5300	2.0221	3.4512	8.0000
0.5310	2.0256	3.4492	8.0000
0.5320	2.0290	3.4472	8.0000
0.5330	2.0325	3.4451	8.0000
0.5340	2.0359	3.4431	8.0000
0.5350	2.0394	3.4411	8.0000
0.5360	2.0428	3.4390	8.0000
0.5370	2.0462	3.4370	8.0000
0.5380	2.0497	3.4349	8.0000
0.5390	2.0531	3.4329	8.0000
0.5400	2.0565	3.4308	8.0000
0.5410	2.0600	3.4288	8.0000
0.5420	2.0634	3.4267	8.0000
0.5430	2.0668	3.4246	8.0000
0.5440	2.0703	3.4226	8.0000
0.5450	2.0737	3.4205	8.0000
0.5460	2.0771	3.4184	8.0000
0.5470	2.0805	3.4164	8.0000
0.5480	2.0839	3.4143	8.0000
0.5490	2.0873	3.4122	8.0000
0.5500	2.0907	3.4101	8.0000
0.5510	2.0942	3.4080	8.0000
0.5520	2.0976	3.4059	8.0000
0.5530	2.1010	3.4038	8.0000
0.5540	2.1044	3.4017	8.0000
0.5550	2.1078	3.3996	8.0000
0.5560	2.1112	3.3975	8.0000
0.5570	2.1146	3.3954	8.0000
0.5580	2.1180	3.3933	8.0000
0.5590	2.1214	3.3911	8.0000
0.5600	2.1247	3.3890	8.0000
0.5610	2.1281	3.3869	8.0000
0.5620	2.1315	3.3848	8.0000
0.5630	2.1349	3.3826	8.0000
0.5640	2.1383	3.3805	8.0000
0.5650	2.1417	3.3784	8.0000
0.5660	2.1450	3.3762	8.0000
0.5670	2.1484	3.3741	8.0000
0.5680	2.1518	3.3719	8.0000
0.5690	2.1552	3.3698	8.0000
0.5700	2.1585	3.3676	8.0000
0.5710	2.1619	3.3654	8.0000
0.5720	2.1653	3.3633	8.0000
0.5730	2.1686	3.3611	8.0000
0.5740	2.1720	3.3589	8.0000
0.5750	2.1753	3.3568	8.0000
0.5760	2.1787	3.3546	8.0000
0.5770	2.1820	3.3524	8.0000
0.5780	2.1854	3.3502	8.0000
0.5790	2.1887	3.3480	8.0000
0.5800	2.1921	3.3459	8.0000
0.5810	2.1954	3.3437	8.0000
0.5820	2.1988	3.3415	8.0000
0.5830	2.2021	3.3393	8.0000
0.5840	2.2055	3.3371	8.0000
0.5850	2.2088	3.3348	8.0000
0.5860	2.2121	3.3326	8.0000
0.5870	2.2155	3.3304	8.0000
0.5880	2.2188	3.3282	8.0000
0.5890	2.2221	3.3260	8.0000
0.5900	2.2254	3.3238	8.0000
0.5910	2.2288	3.3215	8.0000
0.5920	2.2321	3.3193	8.0000
0.5930	2.2354	3.3171	8.0000
0.5940	2.2387	3.3148	8.0000
0.5950	2.2420	3.3126	8.0000
0.5960	2.2453	3.3104	8.0000
0.5970	2.2487	3.3081	8.0000
0.5980	2.2520	3.3059	8.0000
0.5990	2.2553	3.3036	8.0000
0.6000	2.2586	3.3013	8.0000
0.6010	2.2619	3.2991	8.0000
0.6020	2.2652	3.2968	8.0000
0.6030	2.2685	3.2946	8.0000
0.6040	2.2718	3.2923	8.0000
0.6050	2.2750	3.2900	8.0000
0.6060	2.2783	3.2877	8.0000
0.6070	2.2816	3.2855	8.0000
0.6080	2.2849	3.2832	8.0000
0.6090	2.2882	3.2809	8.0000
0.6100	2.2915	3.2786	8.0000
0.6110	2.2947	3.2763	8.0000
0.6120	2.2980	3.2740	8.0000
0.6130	2.3013	3.2717	8.0000
0.6140	2.3046	3.2694	8.0000
0.6150	2.3078	3.2671	8.0000
0.6160	2.3111	3.2648	8.0000
0.6170	2.3144	3.2625	8.0000
0.6180	2.3176	3.2602	8.0000
0.6190	2.3209	3.2578	8.0000
0.6200	2.3241	3.2555	8.0000
0.6210	2.3274	3.2532	8.0000
0.6220	2.3306	3.2509	8.0000
0.6230	2.3339	3.2485	8.0000
0.6240	2.3371	3.2462	8.0000
0.6250	2.3404	3.2439	8.0000
0.6260	2.3436	3.2415	8.0000
0.6270	2.3469	3.2392	8.0000
0.6280	2.3501	3.2368	8.0000
0.6290	2.3533	3.2345	8.0000
0.6300	2.3566	3.2321	8.0000
0.6310	2.3598	3.2298	8.0000
0.6320	2.3630	3.2274	8.0000
0.6330	2.3663	3.2250	8.0000
0.6340	2.3695	3.2227	8.0000
0.6350	2.3727	3.2203	8.0000
0.6360	2.3759	3.2179	8.0000
0.6370	2.3791	3.2155	8.0000
0.6380	2.3824	3.2132	8.0000
0.6390	2.3856	3.2108	8.0000
0.6400	2.3888	3.2084	8.0000
0.6410	2.3920	3.2060	8.0000
0.6420	2.3952	3.2036	8.0000
0.6430	2.3984	3.2012	8.0000
0.6440	2.4016	3.1988	8.0000
0.6450	2.4048	3.1964	8.0000
0.6460	2.4080	3.1940	8.0000
0.6470	2.4112	3.1916	8.0000
0.6480	2.4144	3.1892	8.0000
0.6490	2.4176	3.1868	8.0000
0.6500	2.4207	3.1843	8.0000
0.6510	2.4239	3.1819	8.0000
0.6520	2.4271	3.1795	8.0000
0.6530	2.4303	3.1771	8.0000
0.6540	2.4335	3.1746	8.0000
0.6550	2.4366	3.1722	8.0000
0.6560	2.4398	3.1698	8.0000
0.6570	2.4430	3.1673	8.0000
0.6580	2.4461	3.1649	8.0000
0.6590	2.4493	3.1624	8.0000
0.6600	2.4525	3.1600	8.0000
0.6610	2.4556	3.1575	8.0000
0.6620	2.4588	3.1551	8.0000
0.6630	2.4619	3.1526	8.0000
0.6640	2.4651	3.1501	8.0000
0.6650	2.4682	3.1477	8.0000
0.6660	2.4714	3.1452	8.0000
0.6670	2.4745	3.1427	8.0000
0.6680	2.4777	3.1402	8.0000
0.6690	2.4808	3.1378	8.0000
0.6700	2.4839	3.1353	8.0000
0.6710	2.4871	3.1328	8.0000
0.6720	2.4902	3.1303	8.0000
0.6730	2.4933	3.1278	8.0000
0.6740	2.4965	3.1253	8.0000
0.6750	2.4996	3.1228	8.0000
0.6760	2.5027	3.1203	8.0000
0.6770	2.5058	3.1178	8.0000
0.6780	2.5089	3.1153	8.0000
0.6790	2.5121	3.1128	8.0000
0.6800	2.5152	3.1103	8.0000
0.6810	2.5183	3.1078	8.0000
0.6820	2.5214	3.1053	8.0000
0.6830	2.5245	3.1027	8.0000
0.6840	2.5276	3.1002	8.0000
0.6850	2.5307	3.0977	8.0000
0.6860	2.5338	3.0951	8.0000
0.6870	2.5369	3.0926	8.0000
0.6880	2.5400	3.0901	8.0000
0.6890	2.5431	3.0875	8.0000
0.6900	2.5461	3.0850	8.0000
0.6910	2.5492	3.0824	8.0000
0.6920	2.5523	3.0799	8.0000
0.6930	2.5554	3.0773	8.0000
0.6940	2.5585	3.0748	8.0000
0.6950	2.5615	3.0722	8.0000
0.6960	2.5646	3.0697	8.0000
0.6970	2.5677	3.0671	8.0000
0.6980	2.5707	3.0645	8.0000
0.6990	2.5738	3.0619	8.0000
0.7000	2.5769	3.0594	8.0000
0.7010	2.5799	3.0568	8.0000
0.7020	2.5830	3.0542	8.0000
0.7030	2.5860	3.0516	8.0000
0.7040	2.5891	3.0490	8.0000
0.7050	2.5921	3.0464	8.0000
0.7060	2.5952	3.0439	8.0000
0.7070	2.5982	3.0413	8.0000
0.7080	2.6013	3.0387	8.0000
0.7090	2.6043	3.0361	8.0000
0.7100	2.6073	3.0334	8.0000
0.7110	2.6104	3.0308	8.0000
0.7120	2.6134	3.0282	8.0000
0.7130	2.6164	3.0256	8.0000
0.7140	2.6194	3.0230	8.0000
0.7150	2.6225	3.0204	8.0000
0.7160	2.6255	3.0177	8.0000
0.7170	2.6285	3.0151	8.0000
0.7180	2.6315	3.0125	8.0000
0.7190	2.6345	3.0099	8.0000
0.7200	2.6375	3.0072	8.0000
0.7210	2.6405	3.0046	8.0000
0.7220	2.6435	3.0019	8.0000
0.7230	2.6465	2.9993	8.0000
0.7240	2.6495	2.9966	8.0000
0.7250	2.6525	2.9940	8.0000
0.7260	2.6555	2.9913	8.0000
0.7270	2.6585	2.9887	8.0000
0.7280	2.6615	2.9860	8.0000
0.7290	2.6645	2.9834	8.0000
0.7300	2.6675	2.9807	8.0000
0.7310	2.6705	2.9780	8.0000
0.7320	2.6734	2.9754	8.0000
0.7330	2.6764	2.9727	8.0000
0.7340	2.6794	2.9700	8.0000
0.7350	2.6823	2.9673	8.0000
0.7360	2.6853	2.9646	8.0000
0.7370	2.6883	2.9620	8.0000
0.7380	2.6912	2.9593	8.0000
0.7390	2.6942	2.9566	8.0000
0.7400	2.6972	2.9539	8.0000
0.7410	2.7001	2.9512	8.0000
0.7420	2.7031	2.9485	8.0000
0.7430	2.7060	2.9458	8.0000
0.7440	2.7089	2.9431	8.0000
0.7450	2.7119	2.9404	8.0000
0.7460	2.7148	2.9376	8.0000
0.7470	2.7178	2.9349	8.0000
0.7480	2.7207	2.9322	8.0000
0.7490	2.7236	2.9295	8.0000
0.7500	2.7266	2.9268	8.0000
0.7510	2.7295	2.9240	8.0000
0.7520	2.7324	2.9213	8.0000
0.7530	2.7353	2.9186	8.0000
0.7540	2.7382	2.9158	8.0000
0.7550	2.7412	2.9131	8.0000
0.7560	2.7441	2.9103	8.0000
0.7570	2.7470	2.9076	8.0000
0.7580	2.7499	2.9048	8.0000
0.7590	2.7528	2.9021	8.0000
0.7600	2.7557	2.8993	8.0000
0.7610	2.7586	2.8966	8.0000
0.7620	2.7615	2.8938	8.0000
0.7630	2.7644	2.8911	8.0000
0.7640	2.7673	2.8883	8.0000
0.7650	2.7701	2.8855	8.0000
0.7660	2.7730	2.8828	8.0000
0.7670	2.7759	2.8800	8.0000
0.7680	2.7788	2.8772	8.0000
0.7690	2.7817	2.8744	8.0000
0.7700	2.7845	2.8716	8.0000
0.7710	2.7874	2.8689	8.0000
0.7720	2.7903	2.8661	8.0000
0.7730	2.7931	2.8633	8.0000
0.7740	2.7960	2.8605	8.0000
0.7750	2.7989	2.8577	8.0000
0.7760	2.8017	2.8549	8.0000
0.7770	2.8046	2.8521	8.0000
0.7780	2.8074	2.8493	8.0000
0.7790	2.8103	2.8465	8.0000
0.7800	2.8131	2.8437	8.0000
0.7810	2.8160	2.8408	8.0000
0.7820	2.8188	2.8380	8.0000
0.7830	2.8216	2.8352	8.0000
0.7840	2.8245	2.8324	8.0000
0.7850	2.8273	2.8296	8.0000
0.7860	2.8301	2.8267	8.0000
0.7870	2.8330	2.8239	8.0000
0.7880	2.8358	2.8211	8.0000
0.7890	2.8386	2.8182	8.0000
0.7900	2.8414	2.8154	8.0000
0.7910	2.8442	2.8125	8.0000
0.7920	2.8470	2.8097	8.0000
0.7930	2.8498	2.8068	8.0000
0.7940	2.8527	2.8040	8.0000
0.7950	2.8555	2.8011	8.0000
0.7960	2.8583	2.7983	8.0000
0.7970	2.8611	2.7954	8.0000
0.7980	2.8638	2.7926	8.0000
0.7990	2.8666	2.7897	8.0000
0.8000	2.8694	2.7868	8.0000
0.8010	2.8722	2.7840	8.0000
0.8020	2.8750	2.7811	8.0000
0.8030	2.8778	2.7782	8.0000
0.8040	2.8805	2.7753	8.0000
0.8050	2.8833	2.7724	8.0000
0.8060	2.8861	2.7696	8.0000
0.8070	2.8889	2.7667	8.0000
0.8080	2.8916	2.7638	8.0000
0.8090	2.8944	2.7609	8.0000
0.8100	2.8971	2.7580	8.0000
0.8110	2.8999	2.7551	8.0000
0.8120	2.9027	2.7522	8.0000
0.8130	2.9054	2.7493	8.0000
0.8140	2.9082	2.7464	8.0000
0.8150	2.9109	2.7435	8.0000
0.8160	2.9136	2.7406	8.0000
0.8170	2.9164	2.7376	8.0000
0.8180	2.9191	2.7347	8.0000
0.8190	2.9219	2.7318	8.0000
0.8200	2.9246	2.7289	8.0000
0.8210	2.9273	2.7260	8.0000
0.8220	2.9300	2.7230	8.0000
0.8230	2.9328	2.7201	8.0000
0.8240	2.9355	2.7172	8.0000
0.8250	2.9382	2.7142	8.0000
0.8260	2.9409	2.7113	8.0000
0.8270	2.9436	2.7083	8.0000
0.8280	2.9463	2.7054	8.0000
0.8290	2.9490	2.7025	8.0000
0.8300	2.9517	2.6995	8.0000
0.8310	2.9544	2.6965	8.0000
0.8320	2.9571	2.6936	8.0000
0.8330	2.9598	2.6906	8.0000
0.8340	2.9625	2.6877	8.0000
0.8350	2.9652	2.6847	8.0000
0.8360	2.9679	2.6817	8.0000
0.8370	2.9705	2.6788	8.0000
0.8380	2.9732	2.6758	8.0000
0.8390	2.9759	2.6728	8.0000
0.8400	2.9786	2.6699	8.0000
0.8410	2.9812	2.6669	8.0000
0.8420	2.9839	2.6639	8.0000
0.8430	2.9866	2.6609	8.0000
0.8440	2.9892	2.6579	8.0000
0.8450	2.9919	2.6549	8.0000
0.8460	2.9945	2.6519	8.0000
0.8470	2.9972	2.6489	8.0000
0.8480	2.9998	2.6459	8.0000
0.8490	3.0025	2.6429	8.0000
0.8500	3.0051	2.6399	8.0000
0.8510	3.0078	2.6369	8.0000
0.8520	3.0104	2.6339	8.0000
0.8530	3.0130	2.6309	8.0000
0.8540	3.0157	2.6279	8.0000
0.8550	3.0183	2.6249	8.0000
0.8560	3.0209	2.6219	8.0000
0.8570	3.0235	2.6188	8.0000
0.8580	3.0261	2.6158	8.0000
0.8590	3.0288	2.6128	8.0000
0.8600	3.0314	2.6097	8.0000
0.8610	3.0340	2.6067	8.0000
0.8620	3.0366	2.6037	8.0000
0.8630	3.0392	2.6006	8.0000
0.8640	3.0418	2.5976	8.0000
0.8650	3.0444	2.5946	8.0000
0.8660	3.0470	2.5915	8.0000
0.8670	3.0496	2.5885	8.0000
0.8680	3.0522	2.5854	8.0000
0.8690	3.0547	2.5824	8.0000
0.8700	3.0573	2.5793	8.0000
0.8710	3.0599	2.5762	8.0000
0.8720	3.0625	2.5732	8.0000
0.8730	3.0650	2.5701	8.0000
0.8740	3.0676	2.5671	8.0000
0.8750	3.0702	2.5640	8.0000
0.8760	3.0727	2.5609	8.0000
0.8770	3.0753	2.5578	8.0000
0.8780	3.0779	2.5548	8.0000
0.8790	3.0804	2.5517	8.0000
0.8800	3.0830	2.5486	8.0000
0.8810	3.0855	2.5455	8.0000
0.8820	3.0880	2.5424	8.0000
0.8830	3.0906	2.5393	8.0000
0.8840	3.0931	2.5363	8.0000
0.8850	3.0957	2.5332	8.0000
0.8860	3.0982	2.5301	8.0000
0.8870	3.1007	2.5270	8.0000
0.8880	3.1032	2.5239	8.0000
0.8890	3.1058	2.5208	8.0000
0.8900	3.1083	2.5176	8.0000
0.8910	3.1108	2.5145	8.0000
0.8920	3.1133	2.5114	8.0000
0.8930	3.1158	2.5083	8.0000
0.8940	3.1183	2.5052	8.0000
0.8950	3.1208	2.5021	8.0000
0.8960	3.1233	2.4990	8.0000
0.8970	3.1258	2.4958	8.0000
0.8980	3.1283	2.4927	8.0000
0.8990	3.1308	2.4896	8.0000
0.9000	3.1333	2.4864	8.0000
0.9010	3.1358	2.4833	8.0000
0.9020	3.1383	2.4802	8.0000
0.9030	3.1408	2.4770	8.0000
0.9040	3.1432	2.4739	8.0000
0.9050	3.1457	2.4707	8.0000
0.9060	3.1482	2.4676	8.0000
0.9070	3.1506	2.4644	8.0000
0.9080	3.1531	2.4613	8.0000
0.9090	3.1556	2.4581	8.0000
0.9100	3.1580	2.4550	8.0000
0.9110	3.1605	2.4518	8.0000
0.9120	3.1629	2.4487	8.0000
0.9130	3.1654	2.4455	8.0000
0.9140	3.1678	2.4423	8.0000
0.9150	3.1703	2.4392	8.0000
0.9160	3.1727	2.4360	8.0000
0.9170	3.1751	2.4328	8.0000
0.9180	3.1776	2.4296	8.0000
0.9190	3.1800	2.4265	8.0000
0.9200	3.1824	2.4233	8.0000
0.9210	3.1848	2.4201	8.0000
0.9220	3.1872	2.4169	8.0000
0.9230	3.1897	2.4137	8.0000
0.9240	3.1921	2.4105	8.0000
0.9250	3.1945	2.4073	8.0000
0.9260	3.1969	2.4041	8.0000
0.9270	3.1993	2.4009	8.0000
0.9280	3.2017	2.3977	8.0000
0.9290	3.2041	2.3945	8.0000
0.9300	3.2065	2.3913	8.0000
0.9310	3.2089	2.3881	8.0000
0.9320	3.2113	2.3849	8.0000
0.9330	3.2136	2.3817	8.0000
0.9340	3.2160	2.3785	8.0000
0.9350	3.2184	2.3753	8.0000
0.9360	3.2208	2.3721	8.0000
0.9370	3.2231	2.3688	8.0000
0.9380	3.2255	2.3656	8.0000
0.9390	3.2279	2.3624	8.0000
0.9400	3.2302	2.3592	8.0000
0.9410	3.2326	2.3559	8.0000
0.9420	3.2349	2.3527	8.0000
0.9430	3.2373	2.3495	8.0000
0.9440	3.2396	2.3462	8.0000
0.9450	3.2420	2.3430	8.0000
0.9460	3.2443	2.3397	8.0000
0.9470	3.2467	2.3365	8.0000
0.9480	3.2490	2.3332	8.0000
0.9490	3.2513	2.3300	8.0000
0.9500	3.2537	2.3267	8.0000
0.9510	3.2560	2.3235	8.0000
0.9520	3.2583	2.3202	8.0000
0.9530	3.2606	2.3170	8.0000
0.9540	3.2629	2.3137	8.0000
0.9550	3.2653	2.3104	8.0000
0.9560	3.2676	2.3072	8.0000
0.9570	3.2699	2.3039	8.0000
0.9580	3.2722	2.3006	8.0000
0.9590	3.2745	2.2974	8.0000
0.9600	3.2768	2.2941	8.0000
0.9610	3.2791	2.2908	8.0000
0.9620	3.2813	2.2875	8.0000
0.9630	3.2836	2.2842	8.0000
0.9640	3.2859	2.2810	8.0000
0.9650	3.2882	2.2777	8.0000
0.9660	3.2905	2.2744	8.0000
0.9670	3.2927	2.2711	8.0000
0.9680	3.2950	2.2678	8.0000
0.9690	3.2973	2.2645	8.0000
0.9700	3.2995	2.2612	8.0000
0.9710	3.3018	2.2579	8.0000
0.9720	3.3041	2.2546	8.0000
0.9730	3.3063	2.2513	8.0000
0.9740	3.3086	2.2480	8.0000
0.9750	3.3108	2.2447	8.0000
0.9760	3.3131	2.2414	8.0000
0.9770	3.3153	2.2380	8.0000
0.9780	3.3175	2.2347	8.0000
0.9790	3.3198	2.2314	8.0000
0.9800	3.3220	2.2281	8.0000
0.9810	3.3242	2.2248	8.0000
0.9820	3.3264	2.2214	8.0000
0.9830	3.3287	2.2181	8.0000
0.9840	3.3309	2.2148	8.0000
0.9850	3.3331	2.2115	8.0000
0.9860	3.3353	2.2081	8.0000
0.9870	3.3375	2.2048	8.0000
0.9880	3.3397	2.2014	8.0000
0.9890	3.3419	2.1981	8.0000
0.9900	3.3441	2.1948	8.0000
0.9910	3.3463	2.1914	8.0000
0.9920	3.3485	2.1881	8.0000
0.9930	3.3507	2.1847	8.0000
0.9940	3.3529	2.1814	8.0000
0.9950	3.3550	2.1780	8.0000
0.9960	3.3572	2.1747	8.0000
0.9970	3.3594	2.1713	8.0000
0.9980	3.3616	2.1679	8.0000
0.9990	3.3637	2.1646	8.0000
1.0000	3.3659	2.1612	8.0000
1.0010	3.3680	2.1578	8.0000
1.0020	3.3702	2.1545	8.0000
1.0030	3.3724	2.1511	8.0000
1.0040	3.3745	2.1477	8.0000
1.0050	3.3766	2.1444	8.0000
1.0060	3.3788	2.1410	8.0000
1.0070	3.3809	2.1376	8.0000
1.0080	3.3831	2.1342	8.0000
1.0090	3.3852	2.1308	8.0000
1.0100	3.3873	2.1274	8.0000
1.0110	3.3895	2.1241	8.0000
1.0120	3.3916	2.1207	8.0000
1.0130	3.3937	2.1173	8.0000
1.0140	3.3958	2.1139	8.0000
1.0150	3.3979	2.1105	8.0000
1.0160	3.4000	2.1071	8.0000
1.0170	3.4021	2.1037	8.0000
1.0180	3.4042	2.1003	8.0000
1.0190	3.4063	2.0969	8.0000
1.0200	3.4084	2.0935	8.0000
1.0210	3.4105	2.0901	8.0000
1.0220	3.4126	2.0866	8.0000
1.0230	3.4147	2.0832	8.0000
1.0240	3.4168	2.0798	8.0000
1.0250	3.4189	2.0764	8.0000
1.0260	3.4209	2.0730	8.0000
1.0270	3.4230	2.0696	8.0000
1.0280	3.4251	2.0661	8.0000
1.0290	3.4271	2.0627	8.0000
1.0300	3.4292	2.0593	8.0000
1.0310	3.4313	2.0558	8.0000
1.0320	3.4333	2.0524	8.0000
1.0330	3.4354	2.0490	8.0000
1.0340	3.4374	2.0455	8.0000
1.0350	3.4394	2.0421	8.0000
1.0360	3.4415	2.0387	8.0000
1.0370	3.4435	2.0352	8.0000
1.0380	3.4456	2.0318	8.0000
1.0390	3.4476	2.0283	8.0000
1.0400	3.4496	2.0249	8.0000
1.0410	3.4516	2.0214	8.0000
1.0420	3.4537	2.0180	8.0000
1.0430	3.4557	2.0145	8.0000
1.0440	3.4577	2.0111	8.0000
1.0450	3.4597	2.0076	8.0000
1.0460	3.4617	2.0041	8.0000
1.0470	3.4637	2.0007	8.0000
1.0480	3.4657	1.9972	8.0000
1.0490	3.4677	1.9938	8.0000
1.0500	3.4697	1.9903	8.0000
1.0510	3.4717	1.9868	8.0000
1.0520	3.4737	1.9833	8.0000
1.0530	3.4756	1.9799	8.0000
1.0540	3.4776	1.9764	8.0000
1.0550	3.4796	1.9729	8.0000
1.0560	3.4816	1.9694	8.0000
1.0570	3.4835	1.9659	8.0000
1.0580	3.4855	1.9625	8.0000
1.0590	3.4875	1.9590	8.0000
1.0600	3.4894	1.9555	8.0000
1.0610	3.4914	1.9520	8.0000
1.0620	3.4933	1.9485	8.0000
1.0630	3.4953	1.9450	8.0000
1.0640	3.4972	1.9415	8.0000
1.0650	3.4992	1.9380	8.0000
1.0660	3.5011	1.9345	8.0000
1.0670	3.5030	1.9310	8.0000
1.0680	3.5050	1.9275	8.0000
1.0690	3.5069	1.9240	8.0000