# Time	Position	Velocity	Total Energy
50.0000	-0.2622	-0.9650	0.5000
49.9900	-0.2718	-0.9624	0.5000
49.9800	-0.2814	-0.9596	0.5000
49.9700	-0.2910	-0.9567	0.5000
49.9600	-0.3006	-0.9538	0.5000
49.9500	-0.3101	-0.9507	0.5000
49.9400	-0.3196	-0.9476	0.5000
49.9300	-0.3290	-0.9443	0.5000
49.9200	-0.3385	-0.9410	0.5000
49.9100	-0.3479	-0.9376	0.5000
49.9000	-0.3572	-0.9340	0.5000
49.8900	-0.3665	-0.9304	0.5000
49.8800	-0.3758	-0.9267	0.5000
49.8700	-0.3851	-0.9229	0.5000
49.8600	-0.3943	-0.9190	0.5000
49.8500	-0.4034	-0.9150	0.5000
49.8400	-0.4126	-0.9109	0.5000
49.8300	-0.4217	-0.9068	0.5000
49.8200	-0.4307	-0.9025	0.5000
49.8100	-0.4397	-0.8981	0.5000
49.8000	-0.4487	-0.8937	0.5000
49.7900	-0.4576	-0.8892	0.5000
49.7800	-0.4665	-0.8845	0.5000
49.7700	-0.4753	-0.8798	0.5000
49.7600	-0.4841	-0.8750	0.5000
49.7500	-0.4928	-0.8702	0.5000
49.7400	-0.5015	-0.8652	0.5000
49.7300	-0.5101	-0.8601	0.5000
49.7200	-0.5187	-0.8550	0.5000
49.7100	-0.5272	-0.8498	0.5000
49.7000	-0.5357	-0.8444	0.5000
49.6900	-0.5441	-0.8390	0.5000
49.6800	-0.5524	-0.8336	0.5000
49.6700	-0.5607	-0.8280	0.5000
49.6600	-0.5690	-0.8223	0.5000
49.6500	-0.5772	-0.8166	0.5000
49.6400	-0.5853	-0.8108	0.5000
49.6300	-0.5934	-0.8049	0.5000
49.6200	-0.6014	-0.7989	0.5000
49.6100	-0.6094	-0.7929	0.5000
49.6000	-0.6173	-0.7867	0.5000
49.5900	-0.6251	-0.7805	0.5000
49.5800	-0.6329	-0.7742	0.5000
49.5700	-0.6406	-0.7679	0.5000
49.5600	-0.6483	-0.7614	0.5000
49.5500	-0.6558	-0.7549	0.5000
49.5400	-0.6634	-0.7483	0.5000
49.5300	-0.6708	-0.7416	0.5000
49.5200	-0.6782	-0.7349	0.5000
49.5100	-0.6855	-0.7281	0.5000
49.5000	-0.6927	-0.7212	0.5000
49.4900	-0.6999	-0.7142	0.5000
49.4800	-0.7070	-0.7072	0.5000
49.4700	-0.7141	-0.7001	0.5000
49.4600	-0.7210	-0.6929	0.5000
49.4500	-0.7279	-0.6857	0.5000
49.4400	-0.7347	-0.6784	0.5000
49.4300	-0.7415	-0.6710	0.5000
49.4200	-0.7482	-0.6635	0.5000
49.4100	-0.7548	-0.6560	0.5000
49.4000	-0.7613	-0.6484	0.5000
49.3900	-0.7677	-0.6408	0.5000
49.3800	-0.7741	-0.6331	0.5000
49.3700	-0.7804	-0.6253	0.5000
49.3600	-0.7866	-0.6175	0.5000
49.3500	-0.7927	-0.6096	0.5000
49.3400	-0.7988	-0.6016	0.5000
49.3300	-0.8048	-0.5936	0.5000
49.3200	-0.8107	-0.5855	0.5000
49.3100	-0.8165	-0.5774	0.5000
49.3000	-0.8222	-0.5692	0.5000
49.2900	-0.8279	-0.5609	0.5000
49.2800	-0.8334	-0.5526	0.5000
49.2700	-0.8389	-0.5443	0.5000
49.2600	-0.8443	-0.5359	0.5000
49.2500	-0.8496	-0.5274	0.5000
49.2400	-0.8549	-0.5189	0.5000
49.2300	-0.8600	-0.5103	0.5000
49.2200	-0.8651	-0.5017	0.5000
49.2100	-0.8700	-0.4930	0.5000
49.2000	-0.8749	-0.4843	0.5000
49.1900	-0.8797	-0.4755	0.5000
49.1800	-0.8844	-0.4667	0.5000
49.1700	-0.8891	-0.4578	0.5000
49.1600	-0.8936	-0.4489	0.5000
49.1500	-0.8980	-0.4399	0.5000
49.1400	-0.9024	-0.4309	0.5000
49.1300	-0.9067	-0.4219	0.5000
49.1200	-0.9108	-0.4128	0.5000
49.1100	-0.9149	-0.4037	0.5000
49.1000	-0.9189	-0.3945	0.5000
49.0900	-0.9228	-0.3853	0.5000
49.0800	-0.9266	-0.3760	0.5000
49.0700	-0.9303	-0.3668	0.5000
49.0600	-0.9340	-0.3574	0.5000
49.0500	-0.9375	-0.3481	0.5000
49.0400	-0.9409	-0.3387	0.5000
49.0300	-0.9443	-0.3293	0.5000
49.0200	-0.9475	-0.3198	0.5000
49.0100	-0.9506	-0.3103	0.5000
49.0000	-0.9537	-0.3008	0.5000
48.9900	-0.9567	-0.2912	0.5000
48.9800	-0.9595	-0.2817	0.5000
48.9700	-0.9623	-0.2720	0.5000
48.9600	-0.9650	-0.2624	0.5000
48.9500	-0.9675	-0.2527	0.5000
48.9400	-0.9700	-0.2431	0.5000
48.9300	-0.9724	-0.2333	0.5000
48.9200	-0.9747	-0.2236	0.5000
48.9100	-0.9769	-0.2139	0.5000
48.9000	-0.9790	-0.2041	0.5000
48.8900	-0.9810	-0.1943	0.5000
48.8800	-0.9829	-0.1845	0.5000
48.8700	-0.9846	-0.1746	0.5000
48.8600	-0.9863	-0.1648	0.5000
48.8500	-0.9879	-0.1549	0.5000
48.8400	-0.9894	-0.1450	0.5000
48.8300	-0.9908	-0.1351	0.5000
48.8200	-0.9921	-0.1252	0.5000
48.8100	-0.9933	-0.1153	0.5000
48.8000	-0.9945	-0.1053	0.5000
48.7900	-0.9955	-0.0954	0.5000
48.7800	-0.9964	-0.0854	0.5000
48.7700	-0.9972	-0.0754	0.5000
48.7600	-0.9979	-0.0655	0.5000
48.7500	-0.9985	-0.0555	0.5000
48.7400	-0.9990	-0.0455	0.5000
48.7300	-0.9994	-0.0355	0.5000
48.7200	-0.9997	-0.0255	0.5000
48.7100	-0.9999	-0.0155	0.5000
48.7000	-1.0000	-0.0055	0.5000
48.6900	-1.0000	0.0045	0.5000
48.6800	-0.9999	0.0145	0.5000
48.6700	-0.9997	0.0245	0.5000
48.6600	-0.9994	0.0345	0.5000
48.6500	-0.9990	0.0445	0.5000
48.6400	-0.9985	0.0545	0.5000
48.6300	-0.9979	0.0644	0.5000
48.6200	-0.9972	0.0744	0.5000
48.6100	-0.9964	0.0844	0.5000
48.6000	-0.9956	0.0943	0.5000
48.5900	-0.9946	0.1043	0.5000
48.5800	-0.9935	0.1142	0.5000
48.5700	-0.9923	0.1242	0.5000
48.5600	-0.9910	0.1341	0.5000
48.5500	-0.9896	0.1440	0.5000
48.5400	-0.9881	0.1539	0.5000
48.5300	-0.9865	0.1637	0.5000
48.5200	-0.9848	0.1736	0.5000
48.5100	-0.9830	0.1834	0.5000
48.5000	-0.9812	0.1933	0.5000
48.4900	-0.9792	0.2031	0.5000
48.4800	-0.9771	0.2128	0.5000
48.4700	-0.9749	0.2226	0.5000
48.4600	-0.9726	0.2323	0.5000
48.4500	-0.9703	0.2421	0.5000
48.4400	-0.9678	0.2517	0.5000
48.4300	-0.9652	0.2614	0.5000
48.4200	-0.9626	0.2711	0.5000
48.4100	-0.9598	0.2807	0.5000
48.4000	-0.9570	0.2902	0.5000
48.3900	-0.9540	0.2998	0.5000
48.3800	-0.9510	0.3093	0.5000
48.3700	-0.9478	0.3188	0.5000
48.3600	-0.9446	0.3283	0.5000
48.3500	-0.9413	0.3377	0.5000
48.3400	-0.9378	0.3471	0.5000
48.3300	-0.9343	0.3565	0.5000
48.3200	-0.9307	0.3658	0.5000
48.3100	-0.9270	0.3751	0.5000
48.3000	-0.9232	0.3843	0.5000
48.2900	-0.9193	0.3935	0.5000
48.2800	-0.9153	0.4027	0.5000
48.2700	-0.9113	0.4119	0.5000
48.2600	-0.9071	0.4209	0.5000
48.2500	-0.9028	0.4300	0.5000
48.2400	-0.8985	0.4390	0.5000
48.2300	-0.8941	0.4480	0.5000
48.2200	-0.8895	0.4569	0.5000
48.2100	-0.8849	0.4658	0.5000
48.2000	-0.8802	0.4746	0.5000
48.1900	-0.8754	0.4834	0.5000
48.1800	-0.8706	0.4921	0.5000
48.1700	-0.8656	0.5008	0.5000
48.1600	-0.8605	0.5094	0.5000
48.1500	-0.8554	0.5180	0.5000
48.1400	-0.8502	0.5265	0.5000
48.1300	-0.8449	0.5350	0.5000
48.1200	-0.8395	0.5434	0.5000
48.1100	-0.8340	0.5518	0.5000
48.1000	-0.8284	0.5601	0.5000
48.0900	-0.8228	0.5683	0.5000
48.0800	-0.8171	0.5765	0.5000
48.0700	-0.8113	0.5847	0.5000
48.0600	-0.8054	0.5928	0.5000
48.0500	-0.7994	0.6008	0.5000
48.0400	-0.7934	0.6088	0.5000
48.0300	-0.7872	0.6167	0.5000
48.0200	-0.7810	0.6245	0.5000
48.0100	-0.7748	0.6323	0.5000
48.0000	-0.7684	0.6400	0.5000
47.9900	-0.7620	0.6476	0.5000
47.9800	-0.7554	0.6552	0.5000
47.9700	-0.7488	0.6628	0.5000
47.9600	-0.7422	0.6702	0.5000
47.9500	-0.7354	0.6776	0.5000
47.9400	-0.7286	0.6849	0.5000
47.9300	-0.7217	0.6922	0.5000
47.9200	-0.7148	0.6993	0.5000
47.9100	-0.7078	0.7065	0.5000
47.9000	-0.7007	0.7135	0.5000
47.8900	-0.6935	0.7205	0.5000
47.8800	-0.6863	0.7274	0.5000
47.8700	-0.6789	0.7342	0.5000
47.8600	-0.6716	0.7410	0.5000
47.8500	-0.6641	0.7476	0.5000
47.8400	-0.6566	0.7542	0.5000
47.8300	-0.6490	0.7608	0.5000
47.8200	-0.6414	0.7672	0.5000
47.8100	-0.6337	0.7736	0.5000
47.8000	-0.6259	0.7799	0.5000
47.7900	-0.6181	0.7861	0.5000
47.7800	-0.6102	0.7922	0.5000
47.7700	-0.6023	0.7983	0.5000
47.7600	-0.5942	0.8043	0.5000
47.7500	-0.5862	0.8102	0.5000
47.7400	-0.5780	0.8160	0.5000
47.7300	-0.5698	0.8218	0.5000
47.7200	-0.5616	0.8274	0.5000
47.7100	-0.5533	0.8330	0.5000
47.7000	-0.5449	0.8385	0.5000
47.6900	-0.5365	0.8439	0.5000
47.6800	-0.5281	0.8492	0.5000
47.6700	-0.5195	0.8544	0.5000
47.6600	-0.5110	0.8596	0.5000
47.6500	-0.5024	0.8647	0.5000
47.6400	-0.4937	0.8696	0.5000
47.6300	-0.4850	0.8745	0.5000
47.6200	-0.4762	0.8793	0.5000
47.6100	-0.4674	0.8841	0.5000
47.6000	-0.4585	0.8887	0.5000
47.5900	-0.4496	0.8932	0.5000
47.5800	-0.4406	0.8977	0.5000
47.5700	-0.4316	0.9020	0.5000
47.5600	-0.4226	0.9063	0.5000
47.5500	-0.4135	0.9105	0.5000
47.5400	-0.4044	0.9146	0.5000
47.5300	-0.3952	0.9186	0.5000
47.5200	-0.3860	0.9225	0.5000
47.5100	-0.3768	0.9263	0.5000
47.5000	-0.3675	0.9300	0.5000
47.4900	-0.3582	0.9337	0.5000
47.4800	-0.3488	0.9372	0.5000
47.4700	-0.3394	0.9406	0.5000
47.4600	-0.3300	0.9440	0.5000
47.4500	-0.3206	0.9472	0.5000
47.4400	-0.3111	0.9504	0.5000
47.4300	-0.3015	0.9535	0.5000
47.4200	-0.2920	0.9564	0.5000
47.4100	-0.2824	0.9593	0.5000
47.4000	-0.2728	0.9621	0.5000
47.3900	-0.2632	0.9647	0.5000
47.3800	-0.2535	0.9673	0.5000
47.3700	-0.2438	0.9698	0.5000
47.3600	-0.2341	0.9722	0.5000
47.3500	-0.2244	0.9745	0.5000
47.3400	-0.2146	0.9767	0.5000
47.3300	-0.2048	0.9788	0.5000
47.3200	-0.1951	0.9808	0.5000
47.3100	-0.1852	0.9827	0.5000
47.3000	-0.1754	0.9845	0.5000
47.2900	-0.1655	0.9862	0.5000
47.2800	-0.1557	0.9878	0.5000
47.2700	-0.1458	0.9893	0.5000
47.2600	-0.1359	0.9907	0.5000
47.2500	-0.1260	0.9920	0.5000
47.2400	-0.1160	0.9932	0.5000
47.2300	-0.1061	0.9944	0.5000
47.2200	-0.0962	0.9954	0.5000
47.2100	-0.0862	0.9963	0.5000
47.2000	-0.0762	0.9971	0.5000
47.1900	-0.0663	0.9978	0.5000
47.1800	-0.0563	0.9984	0.5000
47.1700	-0.0463	0.9989	0.5000
47.1600	-0.0363	0.9993	0.5000
47.1500	-0.0263	0.9997	0.5000
47.1400	-0.0163	0.9999	0.5000
47.1300	-0.0063	1.0000	0.5000
47.1200	0.0037	1.0000	0.5000
47.1100	0.0137	0.9999	0.5000
47.1000	0.0237	0.9997	0.5000
47.0900	0.0337	0.9994	0.5000
47.0800	0.0437	0.9990	0.5000
47.0700	0.0537	0.9986	0.5000
47.0600	0.0637	0.9980	0.5000
47.0500	0.0736	0.9973	0.5000
47.0400	0.0836	0.9965	0.5000
47.0300	0.0936	0.9956	0.5000
47.0200	0.1035	0.9946	0.5000
47.0100	0.1135	0.9935	0.5000
47.0000	0.1234	0.9924	0.5000
46.9900	0.1333	0.9911	0.5000
46.9800	0.1432	0.9897	0.5000
46.9700	0.1531	0.9882	0.5000
46.9600	0.1630	0.9866	0.5000
46.9500	0.1728	0.9850	0.5000
46.9400	0.1827	0.9832	0.5000
46.9300	0.1925	0.9813	0.5000
46.9200	0.2023	0.9793	0.5000
46.9100	0.2121	0.9773	0.5000
46.9000	0.2218	0.9751	0.5000
46.8900	0.2316	0.9728	0.5000
46.8800	0.2413	0.9705	0.5000
46.8700	0.2510	0.9680	0.5000
46.8600	0.2607	0.9654	0.5000
46.8500	0.2703	0.9628	0.5000
46.8400	0.2799	0.9600	0.5000
46.8300	0.2895	0.9572	0.5000
46.8200	0.2991	0.9542	0.5000
46.8100	0.3086	0.9512	0.5000
46.8000	0.3181	0.9481	0.5000
46.7900	0.3275	0.9448	0.5000
46.7800	0.3370	0.9415	0.5000
46.7700	0.3464	0.9381	0.5000
46.7600	0.3557	0.9346	0.5000
46.7500	0.3651	0.9310	0.5000
46.7400	0.3744	0.9273	0.5000
46.7300	0.3836	0.9235	0.5000
46.7200	0.3928	0.9196	0.5000
46.7100	0.4020	0.9156	0.5000
46.7000	0.4111	0.9116	0.5000
46.6900	0.4202	0.9074	0.5000
46.6800	0.4293	0.9032	0.5000
46.6700	0.4383	0.8988	0.5000
46.6600	0.4473	0.8944	0.5000
46.6500	0.4562	0.8899	0.5000
46.6400	0.4651	0.8853	0.5000
46.6300	0.4739	0.8806	0.5000
46.6200	0.4827	0.8758	0.5000
46.6100	0.4914	0.8709	0.5000
46.6000	0.5001	0.8660	0.5000
46.5900	0.5087	0.8609	0.5000
46.5800	0.5173	0.8558	0.5000
46.5700	0.5258	0.8506	0.5000
46.5600	0.5343	0.8453	0.5000
46.5500	0.5427	0.8399	0.5000
46.5400	0.5511	0.8344	0.5000
46.5300	0.5594	0.8289	0.5000
46.5200	0.5677	0.8232	0.5000
46.5100	0.5759	0.8175	0.5000
46.5000	0.5840	0.8117	0.5000
46.4900	0.5921	0.8058	0.5000
46.4800	0.6002	0.7999	0.5000
46.4700	0.6081	0.7938	0.5000
46.4600	0.6160	0.7877	0.5000
46.4500	0.6239	0.7815	0.5000
46.4400	0.6317	0.7752	0.5000
46.4300	0.6394	0.7689	0.5000
46.4200	0.6470	0.7625	0.5000
46.4100	0.6546	0.7559	0.5000
46.4000	0.6622	0.7494	0.5000
46.3900	0.6696	0.7427	0.5000
46.3800	0.6770	0.7360	0.5000
46.3700	0.6843	0.7292	0.5000
46.3600	0.6916	0.7223	0.5000
46.3500	0.6988	0.7153	0.5000
46.3400	0.7059	0.7083	0.5000
46.3300	0.7130	0.7012	0.5000
46.3200	0.7199	0.6941	0.5000
46.3100	0.7268	0.6868	0.5000
46.3000	0.7337	0.6795	0.5000
46.2900	0.7404	0.6721	0.5000
46.2800	0.7471	0.6647	0.5000
46.2700	0.7537	0.6572	0.5000
46.2600	0.7603	0.6496	0.5000
46.2500	0.7667	0.6420	0.5000
46.2400	0.7731	0.6343	0.5000
46.2300	0.7794	0.6265	0.5000
46.2200	0.7856	0.6187	0.5000
46.2100	0.7918	0.6108	0.5000
46.2000	0.7978	0.6029	0.5000
46.1900	0.8038	0.5949	0.5000
46.1800	0.8097	0.5868	0.5000
46.1700	0.8156	0.5787	0.5000
46.1600	0.8213	0.5705	0.5000
46.1500	0.8270	0.5622	0.5000
46.1400	0.8326	0.5539	0.5000
46.1300	0.8381	0.5456	0.5000
46.1200	0.8435	0.5372	0.5000
46.1100	0.8488	0.5287	0.5000
46.1000	0.8540	0.5202	0.5000
46.0900	0.8592	0.5116	0.5000
46.0800	0.8643	0.5030	0.5000
46.0700	0.8693	0.4944	0.5000
46.0600	0.8742	0.4856	0.5000
46.0500	0.8790	0.4769	0.5000
46.0400	0.8837	0.4681	0.5000
46.0300	0.8883	0.4592	0.5000
46.0200	0.8929	0.4503	0.5000
46.0100	0.8973	0.4413	0.5000
46.0000	0.9017	0.4324	0.5000
45.9900	0.9060	0.4233	0.5000
45.9800	0.9102	0.4142	0.5000
45.9700	0.9143	0.4051	0.5000
45.9600	0.9183	0.3959	0.5000
45.9500	0.9222	0.3867	0.5000
45.9400	0.9260	0.3775	0.5000
45.9300	0.9297	0.3682	0.5000
45.9200	0.9334	0.3589	0.5000
45.9100	0.9369	0.3496	0.5000
45.9000	0.9404	0.3402	0.5000
45.8900	0.9437	0.3307	0.5000
45.8800	0.9470	0.3213	0.5000
45.8700	0.9502	0.3118	0.5000
45.8600	0.9532	0.3023	0.5000
45.8500	0.9562	0.2927	0.5000
45.8400	0.9591	0.2832	0.5000
45.8300	0.9619	0.2736	0.5000
45.8200	0.9646	0.2639	0.5000
45.8100	0.9671	0.2543	0.5000
45.8000	0.9696	0.2446	0.5000
45.7900	0.9720	0.2349	0.5000
45.7800	0.9743	0.2252	0.5000
45.7700	0.9765	0.2154	0.5000
45.7600	0.9786	0.2056	0.5000
45.7500	0.9807	0.1958	0.5000
45.7400	0.9826	0.1860	0.5000
45.7300	0.9844	0.1762	0.5000
45.7200	0.9861	0.1663	0.5000
45.7100	0.9877	0.1565	0.5000
45.7000	0.9892	0.1466	0.5000
45.6900	0.9906	0.1367	0.5000
45.6800	0.9919	0.1268	0.5000
45.6700	0.9932	0.1168	0.5000
45.6600	0.9943	0.1069	0.5000
45.6500	0.9953	0.0969	0.5000
45.6400	0.9962	0.0870	0.5000
45.6300	0.9970	0.0770	0.5000
45.6200	0.9978	0.0670	0.5000
45.6100	0.9984	0.0571	0.5000
45.6000	0.9989	0.0471	0.5000
45.5900	0.9993	0.0371	0.5000
45.5800	0.9996	0.0271	0.5000
45.5700	0.9999	0.0171	0.5000
45.5600	1.0000	0.0071	0.5000
45.5500	1.0000	-0.0029	0.5000
45.5400	0.9999	-0.0129	0.5000
45.5300	0.9998	-0.0229	0.5000
45.5200	0.9995	-0.0329	0.5000
45.5100	0.9991	-0.0429	0.5000
45.5000	0.9986	-0.0529	0.5000
45.4900	0.9980	-0.0629	0.5000
45.4800	0.9974	-0.0728	0.5000
45.4700	0.9966	-0.0828	0.5000
45.4600	0.9957	-0.0928	0.5000
45.4500	0.9947	-0.1027	0.5000
45.4400	0.9936	-0.1127	0.5000
45.4300	0.9925	-0.1226	0.5000
45.4200	0.9912	-0.1325	0.5000
45.4100	0.9898	-0.1424	0.5000
45.4000	0.9883	-0.1523	0.5000
45.3900	0.9868	-0.1622	0.5000
45.3800	0.9851	-0.1720	0.5000
45.3700	0.9833	-0.1819	0.5000
45.3600	0.9815	-0.1917	0.5000
45.3500	0.9795	-0.2015	0.5000
45.3400	0.9774	-0.2113	0.5000
45.3300	0.9753	-0.2211	0.5000
45.3200	0.9730	-0.2308	0.5000
45.3100	0.9707	-0.2405	0.5000
45.3000	0.9682	-0.2502	0.5000
45.2900	0.9657	-0.2599	0.5000
45.2800	0.9630	-0.2695	0.5000
45.2700	0.9603	-0.2791	0.5000
45.2600	0.9574	-0.2887	0.5000
45.2500	0.9545	-0.2983	0.5000
45.2400	0.9515	-0.3078	0.5000
45.2300	0.9483	-0.3173	0.5000
45.2200	0.9451	-0.3268	0.5000
45.2100	0.9418	-0.3362	0.5000
45.2000	0.9384	-0.3456	0.5000
45.1900	0.9349	-0.3550	0.5000
45.1800	0.9313	-0.3643	0.5000
45.1700	0.9276	-0.3736	0.5000
45.1600	0.9238	-0.3829	0.5000
45.1500	0.9199	-0.3921	0.5000
45.1400	0.9160	-0.4013	0.5000
45.1300	0.9119	-0.4104	0.5000
45.1200	0.9078	-0.4195	0.5000
45.1100	0.9035	-0.4286	0.5000
45.1000	0.8992	-0.4376	0.5000
45.0900	0.8948	-0.4465	0.5000
45.0800	0.8903	-0.4555	0.5000
45.0700	0.8857	-0.4644	0.5000
45.0600	0.8810	-0.4732	0.5000
45.0500	0.8762	-0.4820	0.5000
45.0400	0.8713	-0.4907	0.5000
45.0300	0.8664	-0.4994	0.5000
45.0200	0.8613	-0.5080	0.5000
45.0100	0.8562	-0.5166	0.5000
45.0000	0.8510	-0.5252	0.5000
44.9900	0.8457	-0.5336	0.5000
44.9800	0.8403	-0.5421	0.5000
44.9700	0.8349	-0.5505	0.5000
44.9600	0.8293	-0.5588	0.5000
44.9500	0.8237	-0.5670	0.5000
44.9400	0.8180	-0.5752	0.5000
44.9300	0.8122	-0.5834	0.5000
44.9200	0.8063	-0.5915	0.5000
44.9100	0.8004	-0.5995	0.5000
44.9000	0.7943	-0.6075	0.5000
44.8900	0.7882	-0.6154	0.5000
44.8800	0.7820	-0.6233	0.5000
44.8700	0.7758	-0.6311	0.5000
44.8600	0.7694	-0.6388	0.5000
44.8500	0.7630	-0.6464	0.5000
44.8400	0.7565	-0.6540	0.5000
44.8300	0.7499	-0.6616	0.5000
44.8200	0.7432	-0.6690	0.5000
44.8100	0.7365	-0.6764	0.5000
44.8000	0.7297	-0.6838	0.5000
44.7900	0.7228	-0.6910	0.5000
44.7800	0.7159	-0.6982	0.5000
44.7700	0.7089	-0.7053	0.5000
44.7600	0.7018	-0.7124	0.5000
44.7500	0.6946	-0.7194	0.5000
44.7400	0.6874	-0.7263	0.5000
44.7300	0.6801	-0.7331	0.5000
44.7200	0.6727	-0.7399	0.5000
44.7100	0.6653	-0.7466	0.5000
44.7000	0.6578	-0.7532	0.5000
44.6900	0.6502	-0.7597	0.5000
44.6800	0.6426	-0.7662	0.5000
44.6700	0.6349	-0.7726	0.5000
44.6600	0.6272	-0.7789	0.5000
44.6500	0.6193	-0.7851	0.5000
44.6400	0.6115	-0.7913	0.5000
44.6300	0.6035	-0.7974	0.5000
44.6200	0.5955	-0.8034	0.5000
44.6100	0.5874	-0.8093	0.5000
44.6000	0.5793	-0.8151	0.5000
44.5900	0.5711	-0.8209	0.5000
44.5800	0.5629	-0.8265	0.5000
44.5700	0.5546	-0.8321	0.5000
44.5600	0.5463	-0.8376	0.5000
44.5500	0.5379	-0.8430	0.5000
44.5400	0.5294	-0.8484	0.5000
44.5300	0.5209	-0.8536	0.5000
44.5200	0.5123	-0.8588	0.5000
44.5100	0.5037	-0.8639	0.5000
44.5000	0.4951	-0.8689	0.5000
44.4900	0.4863	-0.8738	0.5000
44.4800	0.4776	-0.8786	0.5000
44.4700	0.4688	-0.8833	0.5000
44.4600	0.4599	-0.8880	0.5000
44.4500	0.4510	-0.8925	0.5000
44.4400	0.4421	-0.8970	0.5000
44.4300	0.4331	-0.9014	0.5000
44.4200	0.4240	-0.9056	0.5000
44.4100	0.4150	-0.9098	0.5000
44.4000	0.4058	-0.9139	0.5000
44.3900	0.3967	-0.9180	0.5000
44.3800	0.3875	-0.9219	0.5000
44.3700	0.3782	-0.9257	0.5000
44.3600	0.3690	-0.9294	0.5000
44.3500	0.3596	-0.9331	0.5000
44.3400	0.3503	-0.9366	0.5000
44.3300	0.3409	-0.9401	0.5000
44.3200	0.3315	-0.9435	0.5000
44.3100	0.3220	-0.9467	0.5000
44.3000	0.3126	-0.9499	0.5000
44.2900	0.3030	-0.9530	0.5000
44.2800	0.2935	-0.9560	0.5000
44.2700	0.2839	-0.9588	0.5000
44.2600	0.2743	-0.9616	0.5000
44.2500	0.2647	-0.9643	0.5000
44.2400	0.2550	-0.9669	0.5000
44.2300	0.2454	-0.9694	0.5000
44.2200	0.2357	-0.9718	0.5000
44.2100	0.2259	-0.9741	0.5000
44.2000	0.2162	-0.9764	0.5000
44.1900	0.2064	-0.9785	0.5000
44.1800	0.1966	-0.9805	0.5000
44.1700	0.1868	-0.9824	0.5000
44.1600	0.1770	-0.9842	0.5000
44.1500	0.1671	-0.9859	0.5000
44.1400	0.1572	-0.9876	0.5000
44.1300	0.1474	-0.9891	0.5000
44.1200	0.1375	-0.9905	0.5000
44.1100	0.1275	-0.9918	0.5000
44.1000	0.1176	-0.9931	0.5000
44.0900	0.1077	-0.9942	0.5000
44.0800	0.0977	-0.9952	0.5000
44.0700	0.0878	-0.9961	0.5000
44.0600	0.0778	-0.9970	0.5000
44.0500	0.0678	-0.9977	0.5000
44.0400	0.0579	-0.9983	0.5000
44.0300	0.0479	-0.9989	0.5000
44.0200	0.0379	-0.9993	0.5000
44.0100	0.0279	-0.9996	0.5000
44.0000	0.0179	-0.9998	0.5000
43.9900	0.0079	-1.0000	0.5000
43.9800	-0.0021	-1.0000	0.5000
43.9700	-0.0121	-0.9999	0.5000
43.9600	-0.0221	-0.9998	0.5000
43.9500	-0.0321	-0.9995	0.5000
43.9400	-0.0421	-0.9991	0.5000
43.9300	-0.0521	-0.9986	0.5000
43.9200	-0.0621	-0.9981	0.5000
43.9100	-0.0721	-0.9974	0.5000
43.9000	-0.0820	-0.9966	0.5000
43.8900	-0.0920	-0.9958	0.5000
43.8800	-0.1019	-0.9948	0.5000
43.8700	-0.1119	-0.9937	0.5000
43.8600	-0.1218	-0.9926	0.5000
43.8500	-0.1317	-0.9913	0.5000
43.8400	-0.1416	-0.9899	0.5000
43.8300	-0.1515	-0.9885	0.5000
43.8200	-0.1614	-0.9869	0.5000
43.8100	-0.1713	-0.9852	0.5000
43.8000	-0.1811	-0.9835	0.5000
43.7900	-0.1909	-0.9816	0.5000
43.7800	-0.2007	-0.9796	0.5000
43.7700	-0.2105	-0.9776	0.5000
43.7600	-0.2203	-0.9754	0.5000
43.7500	-0.2300	-0.9732	0.5000
43.7400	-0.2398	-0.9708	0.5000
43.7300	-0.2495	-0.9684	0.5000
43.7200	-0.2591	-0.9658	0.5000
43.7100	-0.2688	-0.9632	0.5000
43.7000	-0.2784	-0.9605	0.5000
43.6900	-0.2880	-0.9576	0.5000
43.6800	-0.2975	-0.9547	0.5000
43.6700	-0.3071	-0.9517	0.5000
43.6600	-0.3166	-0.9486	0.5000
43.6500	-0.3260	-0.9454	0.5000
43.6400	-0.3355	-0.9420	0.5000
43.6300	-0.3449	-0.9386	0.5000
43.6200	-0.3543	-0.9351	0.5000
43.6100	-0.3636	-0.9316	0.5000
43.6000	-0.3729	-0.9279	0.5000
43.5900	-0.3821	-0.9241	0.5000
43.5800	-0.3914	-0.9202	0.5000
43.5700	-0.4006	-0.9163	0.5000
43.5600	-0.4097	-0.9122	0.5000
43.5500	-0.4188	-0.9081	0.5000
43.5400	-0.4279	-0.9038	0.5000
43.5300	-0.4369	-0.8995	0.5000
43.5200	-0.4458	-0.8951	0.5000
43.5100	-0.4548	-0.8906	0.5000
43.5000	-0.4637	-0.8860	0.5000
43.4900	-0.4725	-0.8813	0.5000
43.4800	-0.4813	-0.8766	0.5000
43.4700	-0.4900	-0.8717	0.5000
43.4600	-0.4987	-0.8668	0.5000
43.4500	-0.5074	-0.8617	0.5000
43.4400	-0.5160	-0.8566	0.5000
43.4300	-0.5245	-0.8514	0.5000
43.4200	-0.5330	-0.8461	0.5000
43.4100	-0.5414	-0.8408	0.5000
43.4000	-0.5498	-0.8353	0.5000
43.3900	-0.5581	-0.8298	0.5000
43.3800	-0.5664	-0.8241	0.5000
43.3700	-0.5746	-0.8184	0.5000
43.3600	-0.5828	-0.8126	0.5000
43.3500	-0.5909	-0.8068	0.5000
43.3400	-0.5989	-0.8008	0.5000
43.3300	-0.6069	-0.7948	0.5000
43.3200	-0.6148	-0.7887	0.5000
43.3100	-0.6227	-0.7825	0.5000
43.3000	-0.6304	-0.7762	0.5000
43.2900	-0.6382	-0.7699	0.5000
43.2800	-0.6458	-0.7635	0.5000
43.2700	-0.6534	-0.7570	0.5000
43.2600	-0.6610	-0.7504	0.5000
43.2500	-0.6685	-0.7438	0.5000
43.2400	-0.6759	-0.7370	0.5000
43.2300	-0.6832	-0.7302	0.5000
43.2200	-0.6905	-0.7234	0.5000
43.2100	-0.6977	-0.7164	0.5000
43.2000	-0.7048	-0.7094	0.5000
43.1900	-0.7119	-0.7023	0.5000
43.1800	-0.7188	-0.6952	0.5000
43.1700	-0.7258	-0.6880	0.5000
43.1600	-0.7326	-0.6807	0.5000
43.1500	-0.7394	-0.6733	0.5000
43.1400	-0.7461	-0.6659	0.5000
43.1300	-0.7527	-0.6584	0.5000
43.1200	-0.7592	-0.6508	0.5000
43.1100	-0.7657	-0.6432	0.5000
43.1000	-0.7721	-0.6355	0.5000
43.0900	-0.7784	-0.6278	0.5000
43.0800	-0.7847	-0.6199	0.5000
43.0700	-0.7908	-0.6121	0.5000
43.0600	-0.7969	-0.6041	0.5000
43.0500	-0.8029	-0.5961	0.5000
43.0400	-0.8088	-0.5881	0.5000
43.0300	-0.8147	-0.5800	0.5000
43.0200	-0.8204	-0.5718	0.5000
43.0100	-0.8261	-0.5636	0.5000
43.0000	-0.8317	-0.5553	0.5000
42.9900	-0.8372	-0.5469	0.5000
42.9800	-0.8426	-0.5385	0.5000
42.9700	-0.8480	-0.5301	0.5000
42.9600	-0.8532	-0.5216	0.5000
42.9500	-0.8584	-0.5130	0.5000
42.9400	-0.8635	-0.5044	0.5000
42.9300	-0.8685	-0.4957	0.5000
42.9200	-0.8734	-0.4870	0.5000
42.9100	-0.8782	-0.4783	0.5000
42.9000	-0.8830	-0.4695	0.5000
42.8900	-0.8876	-0.4606	0.5000
42.8800	-0.8922	-0.4517	0.5000
42.8700	-0.8966	-0.4428	0.5000
42.8600	-0.9010	-0.4338	0.5000
42.8500	-0.9053	-0.4247	0.5000
42.8400	-0.9095	-0.4157	0.5000
42.8300	-0.9136	-0.4066	0.5000
42.8200	-0.9177	-0.3974	0.5000
42.8100	-0.9216	-0.3882	0.5000
42.8000	-0.9254	-0.3790	0.5000
42.7900	-0.9292	-0.3697	0.5000
42.7800	-0.9328	-0.3604	0.5000
42.7700	-0.9364	-0.3510	0.5000
42.7600	-0.9398	-0.3417	0.5000
42.7500	-0.9432	-0.3322	0.5000
42.7400	-0.9465	-0.3228	0.5000
42.7300	-0.9497	-0.3133	0.5000
42.7200	-0.9527	-0.3038	0.5000
42.7100	-0.9557	-0.2943	0.5000
42.7000	-0.9586	-0.2847	0.5000
42.6900	-0.9614	-0.2751	0.5000
42.6800	-0.9641	-0.2655	0.5000
42.6700	-0.9667	-0.2558	0.5000
42.6600	-0.9693	-0.2461	0.5000
42.6500	-0.9717	-0.2364	0.5000
42.6400	-0.9740	-0.2267	0.5000
42.6300	-0.9762	-0.2169	0.5000
42.6200	-0.9783	-0.2072	0.5000
42.6100	-0.9803	-0.1974	0.5000
42.6000	-0.9823	-0.1876	0.5000
42.5900	-0.9841	-0.1777	0.5000
42.5800	-0.9858	-0.1679	0.5000
42.5700	-0.9874	-0.1580	0.5000
42.5600	-0.9890	-0.1481	0.5000
42.5500	-0.9904	-0.1382	0.5000
42.5400	-0.9917	-0.1283	0.5000
42.5300	-0.9930	-0.1184	0.5000
42.5200	-0.9941	-0.1085	0.5000
42.5100	-0.9951	-0.0985	0.5000
42.5000	-0.9961	-0.0886	0.5000
42.4900	-0.9969	-0.0786	0.5000
42.4800	-0.9977	-0.0686	0.5000
42.4700	-0.9983	-0.0586	0.5000
42.4600	-0.9988	-0.0487	0.5000
42.4500	-0.9993	-0.0387	0.5000
42.4400	-0.9996	-0.0287	0.5000
42.4300	-0.9998	-0.0187	0.5000
42.4200	-1.0000	-0.0087	0.5000
42.4100	-1.0000	0.0013	0.5000
42.4000	-0.9999	0.0113	0.5000
42.3900	-0.9998	0.0213	0.5000
42.3800	-0.9995	0.0313	0.5000
42.3700	-0.9992	0.0413	0.5000
42.3600	-0.9987	0.0513	0.5000
42.3500	-0.9981	0.0613	0.5000
42.3400	-0.9975	0.0713	0.5000
42.3300	-0.9967	0.0812	0.5000
42.3200	-0.9958	0.0912	0.5000
42.3100	-0.9949	0.1012	0.5000
42.3000	-0.9938	0.1111	0.5000
42.2900	-0.9927	0.1210	0.5000
42.2800	-0.9914	0.1309	0.5000
42.2700	-0.9900	0.1409	0.5000
42.2600	-0.9886	0.1507	0.5000
42.2500	-0.9870	0.1606	0.5000
42.2400	-0.9854	0.1705	0.5000
42.2300	-0.9836	0.1803	0.5000
42.2200	-0.9818	0.1902	0.5000
42.2100	-0.9798	0.2000	0.5000
42.2000	-0.9778	0.2098	0.5000
42.1900	-0.9756	0.2195	0.5000
42.1800	-0.9734	0.2293	0.5000
42.1700	-0.9710	0.2390	0.5000
42.1600	-0.9686	0.2487	0.5000
42.1500	-0.9661	0.2584	0.5000
42.1400	-0.9634	0.2680	0.5000
42.1300	-0.9607	0.2776	0.5000
42.1200	-0.9579	0.2872	0.5000
42.1100	-0.9550	0.2968	0.5000
42.1000	-0.9519	0.3063	0.5000
42.0900	-0.9488	0.3158	0.5000
42.0800	-0.9456	0.3253	0.5000
42.0700	-0.9423	0.3347	0.5000
42.0600	-0.9389	0.3441	0.5000
42.0500	-0.9354	0.3535	0.5000
42.0400	-0.9319	0.3629	0.5000
42.0300	-0.9282	0.3722	0.5000
42.0200	-0.9244	0.3814	0.5000
42.0100	-0.9206	0.3906	0.5000
42.0000	-0.9166	0.3998	0.5000
41.9900	-0.9126	0.4090	0.5000
41.9800	-0.9084	0.4181	0.5000
41.9700	-0.9042	0.4271	0.5000
41.9600	-0.8999	0.4362	0.5000
41.9500	-0.8955	0.4451	0.5000
41.9400	-0.8910	0.4541	0.5000
41.9300	-0.8864	0.4630	0.5000
41.9200	-0.8817	0.4718	0.5000
41.9100	-0.8770	0.4806	0.5000
41.9000	-0.8721	0.4893	0.5000
41.8900	-0.8672	0.4980	0.5000
41.8800	-0.8621	0.5067	0.5000
41.8700	-0.8570	0.5153	0.5000
41.8600	-0.8518	0.5238	0.5000
41.8500	-0.8466	0.5323	0.5000
41.8400	-0.8412	0.5407	0.5000
41.8300	-0.8357	0.5491	0.5000
41.8200	-0.8302	0.5575	0.5000
41.8100	-0.8246	0.5657	0.5000
41.8000	-0.8189	0.5740	0.5000
41.7900	-0.8131	0.5821	0.5000
41.7800	-0.8073	0.5902	0.5000
41.7700	-0.8013	0.5983	0.5000
41.7600	-0.7953	0.6062	0.5000
41.7500	-0.7892	0.6142	0.5000
41.7400	-0.7830	0.6220	0.5000
41.7300	-0.7767	0.6298	0.5000
41.7200	-0.7704	0.6376	0.5000
41.7100	-0.7640	0.6452	0.5000
41.7000	-0.7575	0.6528	0.5000
41.6900	-0.7509	0.6604	0.5000
41.6800	-0.7443	0.6679	0.5000
41.6700	-0.7376	0.6753	0.5000
41.6600	-0.7308	0.6826	0.5000
41.6500	-0.7239	0.6899	0.5000
41.6400	-0.7170	0.6971	0.5000
41.6300	-0.7100	0.7042	0.5000
41.6200	-0.7029	0.7113	0.5000
41.6100	-0.6958	0.7183	0.5000
41.6000	-0.6885	0.7252	0.5000
41.5900	-0.6813	0.7321	0.5000
41.5800	-0.6739	0.7388	0.5000
41.5700	-0.6665	0.7455	0.5000
41.5600	-0.6590	0.7522	0.5000
41.5500	-0.6514	0.7587	0.5000
41.5400	-0.6438	0.7652	0.5000
41.5300	-0.6361	0.7716	0.5000
41.5200	-0.6284	0.7779	0.5000
41.5100	-0.6206	0.7842	0.5000
41.5000	-0.6127	0.7903	0.5000
41.4900	-0.6048	0.7964	0.5000
41.4800	-0.5968	0.8024	0.5000
41.4700	-0.5887	0.8083	0.5000
41.4600	-0.5806	0.8142	0.5000
41.4500	-0.5724	0.8200	0.5000
41.4400	-0.5642	0.8256	0.5000
41.4300	-0.5559	0.8312	0.5000
41.4200	-0.5476	0.8368	0.5000
41.4100	-0.5392	0.8422	0.5000
41.4000	-0.5307	0.8475	0.5000
41.3900	-0.5222	0.8528	0.5000
41.3800	-0.5137	0.8580	0.5000
41.3700	-0.5051	0.8631	0.5000
41.3600	-0.4964	0.8681	0.5000
41.3500	-0.4877	0.8730	0.5000
41.3400	-0.4790	0.8778	0.5000
41.3300	-0.4702	0.8826	0.5000
41.3200	-0.4613	0.8872	0.5000
41.3100	-0.4524	0.8918	0.5000
41.3000	-0.4435	0.8963	0.5000
41.2900	-0.4345	0.9007	0.5000
41.2800	-0.4255	0.9050	0.5000
41.2700	-0.4164	0.9092	0.5000
41.2600	-0.4073	0.9133	0.5000
41.2500	-0.3981	0.9173	0.5000
41.2400	-0.3889	0.9213	0.5000
41.2300	-0.3797	0.9251	0.5000
41.2200	-0.3704	0.9289	0.5000
41.2100	-0.3611	0.9325	0.5000
41.2000	-0.3518	0.9361	0.5000
41.1900	-0.3424	0.9396	0.5000
41.1800	-0.3330	0.9429	0.5000
41.1700	-0.3235	0.9462	0.5000
41.1600	-0.3141	0.9494	0.5000
41.1500	-0.3046	0.9525	0.5000
41.1400	-0.2950	0.9555	0.5000
41.1300	-0.2854	0.9584	0.5000
41.1200	-0.2758	0.9612	0.5000
41.1100	-0.2662	0.9639	0.5000
41.1000	-0.2566	0.9665	0.5000
41.0900	-0.2469	0.9690	0.5000
41.0800	-0.2372	0.9715	0.5000
41.0700	-0.2275	0.9738	0.5000
41.0600	-0.2177	0.9760	0.5000
41.0500	-0.2079	0.9781	0.5000
41.0400	-0.1981	0.9802	0.5000
41.0300	-0.1883	0.9821	0.5000
41.0200	-0.1785	0.9839	0.5000
41.0100	-0.1687	0.9857	0.5000
41.0000	-0.1588	0.9873	0.5000
40.9900	-0.1489	0.9889	0.5000
40.9800	-0.1390	0.9903	0.5000
40.9700	-0.1291	0.9916	0.5000
40.9600	-0.1192	0.9929	0.5000
40.9500	-0.1092	0.9940	0.5000
40.9400	-0.0993	0.9951	0.5000
40.9300	-0.0893	0.9960	0.5000
40.9200	-0.0794	0.9968	0.5000
40.9100	-0.0694	0.9976	0.5000
40.9000	-0.0594	0.9982	0.5000
40.8900	-0.0494	0.9988	0.5000
40.8800	-0.0395	0.9992	0.5000
40.8700	-0.0295	0.9996	0.5000
40.8600	-0.0195	0.9998	0.5000
40.8500	-0.0095	1.0000	0.5000
40.8400	0.0005	1.0000	0.5000
40.8300	0.0105	0.9999	0.5000
40.8200	0.0205	0.9998	0.5000
40.8100	0.0305	0.9995	0.5000
40.8000	0.0405	0.9992	0.5000
40.7900	0.0505	0.9987	0.5000
40.7800	0.0605	0.9982	0.5000
40.7700	0.0705	0.9975	0.5000
40.7600	0.0804	0.9968	0.5000
40.7500	0.0904	0.9959	0.5000
40.7400	0.1004	0.9950	0.5000
40.7300	0.1103	0.9939	0.5000
40.7200	0.1202	0.9927	0.5000
40.7100	0.1302	0.9915	0.5000
40.7000	0.1401	0.9901	0.5000
40.6900	0.1500	0.9887	0.5000
40.6800	0.1598	0.9871	0.5000
40.6700	0.1697	0.9855	0.5000
40.6600	0.1796	0.9837	0.5000
40.6500	0.1894	0.9819	0.5000
40.6400	0.1992	0.9800	0.5000
40.6300	0.2090	0.9779	0.5000
40.6200	0.2188	0.9758	0.5000
40.6100	0.2285	0.9735	0.5000
40.6000	0.2382	0.9712	0.5000
40.5900	0.2479	0.9688	0.5000
40.5800	0.2576	0.9663	0.5000
40.5700	0.2673	0.9636	0.5000
40.5600	0.2769	0.9609	0.5000
40.5500	0.2865	0.9581	0.5000
40.5400	0.2960	0.9552	0.5000
40.5300	0.3056	0.9522	0.5000
40.5200	0.3151	0.9491	0.5000
40.5100	0.3246	0.9459	0.5000
40.5000	0.3340	0.9426	0.5000
40.4900	0.3434	0.9392	0.5000
40.4800	0.3528	0.9357	0.5000
40.4700	0.3621	0.9321	0.5000
40.4600	0.3714	0.9285	0.5000
40.4500	0.3807	0.9247	0.5000
40.4400	0.3899	0.9209	0.5000
40.4300	0.3991	0.9169	0.5000
40.4200	0.4083	0.9129	0.5000
40.4100	0.4174	0.9087	0.5000
40.4000	0.4264	0.9045	0.5000
40.3900	0.4355	0.9002	0.5000
40.3800	0.4444	0.8958	0.5000
40.3700	0.4534	0.8913	0.5000
40.3600	0.4623	0.8867	0.5000
40.3500	0.4711	0.8821	0.5000
40.3400	0.4799	0.8773	0.5000
40.3300	0.4887	0.8725	0.5000
40.3200	0.4974	0.8676	0.5000
40.3100	0.5060	0.8625	0.5000
40.3000	0.5146	0.8574	0.5000
40.2900	0.5232	0.8522	0.5000
40.2800	0.5316	0.8470	0.5000
40.2700	0.5401	0.8416	0.5000
40.2600	0.5485	0.8362	0.5000
40.2500	0.5568	0.8306	0.5000
40.2400	0.5651	0.8250	0.5000
40.2300	0.5733	0.8193	0.5000
40.2200	0.5815	0.8136	0.5000
40.2100	0.5896	0.8077	0.5000
40.2000	0.5976	0.8018	0.5000
40.1900	0.6056	0.7958	0.5000
40.1800	0.6135	0.7897	0.5000
40.1700	0.6214	0.7835	0.5000
40.1600	0.6292	0.7772	0.5000
40.1500	0.6370	0.7709	0.5000
40.1400	0.6446	0.7645	0.5000
40.1300	0.6522	0.7580	0.5000
40.1200	0.6598	0.7515	0.5000
40.1100	0.6673	0.7448	0.5000
40.1000	0.6747	0.7381	0.5000
40.0900	0.6820	0.7313	0.5000
40.0800	0.6893	0.7245	0.5000
40.0700	0.6965	0.7175	0.5000
40.0600	0.7037	0.7105	0.5000
40.0500	0.7107	0.7035	0.5000
40.0400	0.7177	0.6963	0.5000