# Time	Position	Velocity	Total Energy
0.0000	0.0000	2.0000	2.0000
0.0100	0.0200	2.0000	2.0002
0.0200	0.0400	2.0000	2.0008
0.0300	0.0600	1.9998	2.0014
0.0400	0.0800	1.9994	2.0020
0.0500	0.1000	1.9988	2.0026
0.0600	0.1200	1.9980	2.0032
0.0700	0.1399	1.9970	2.0038
0.0800	0.1599	1.9958	2.0044
0.0900	0.1799	1.9944	2.0050
0.1000	0.1998	1.9928	2.0056
0.1100	0.2197	1.9910	2.0062
0.1200	0.2396	1.9890	2.0068
0.1300	0.2595	1.9868	2.0074
0.1400	0.2794	1.9844	2.0080
0.1500	0.2992	1.9818	2.0086
0.1600	0.3190	1.9790	2.0092
0.1700	0.3388	1.9760	2.0098
0.1800	0.3585	1.9729	2.0104
0.1900	0.3782	1.9695	2.0109
0.2000	0.3979	1.9659	2.0115
0.2100	0.4175	1.9621	2.0121
0.2200	0.4371	1.9581	2.0127
0.2300	0.4567	1.9540	2.0133
0.2400	0.4762	1.9496	2.0139
0.2500	0.4957	1.9451	2.0145
0.2600	0.5151	1.9403	2.0151
0.2700	0.5345	1.9354	2.0156
0.2800	0.5538	1.9302	2.0162
0.2900	0.5731	1.9249	2.0168
0.3000	0.5923	1.9193	2.0174
0.3100	0.6115	1.9136	2.0179
0.3200	0.6306	1.9077	2.0185
0.3300	0.6496	1.9016	2.0191
0.3400	0.6686	1.8953	2.0197
0.3500	0.6875	1.8888	2.0202
0.3600	0.7064	1.8822	2.0208
0.3700	0.7252	1.8753	2.0214
0.3800	0.7439	1.8683	2.0219
0.3900	0.7625	1.8610	2.0225
0.4000	0.7811	1.8536	2.0230
0.4100	0.7996	1.8460	2.0236
0.4200	0.8180	1.8382	2.0241
0.4300	0.8364	1.8303	2.0247
0.4400	0.8546	1.8221	2.0252
0.4500	0.8728	1.8138	2.0258
0.4600	0.8909	1.8052	2.0263
0.4700	0.9089	1.7965	2.0269
0.4800	0.9268	1.7877	2.0274
0.4900	0.9447	1.7786	2.0279
0.5000	0.9624	1.7694	2.0285
0.5100	0.9801	1.7600	2.0290
0.5200	0.9976	1.7504	2.0295
0.5300	1.0151	1.7406	2.0300
0.5400	1.0324	1.7307	2.0306
0.5500	1.0497	1.7206	2.0311
0.5600	1.0668	1.7103	2.0316
0.5700	1.0839	1.6998	2.0321
0.5800	1.1008	1.6892	2.0326
0.5900	1.1177	1.6784	2.0331
0.6000	1.1344	1.6674	2.0336
0.6100	1.1510	1.6563	2.0341
0.6200	1.1675	1.6450	2.0346
0.6300	1.1839	1.6336	2.0351
0.6400	1.2002	1.6219	2.0356
0.6500	1.2164	1.6102	2.0361
0.6600	1.2324	1.5982	2.0366
0.6700	1.2483	1.5861	2.0370
0.6800	1.2641	1.5739	2.0375
0.6900	1.2798	1.5614	2.0380
0.7000	1.2954	1.5489	2.0385
0.7100	1.3108	1.5361	2.0389
0.7200	1.3261	1.5232	2.0394
0.7300	1.3412	1.5102	2.0398
0.7400	1.3563	1.4970	2.0403
0.7500	1.3712	1.4837	2.0407
0.7600	1.3860	1.4702	2.0412
0.7700	1.4006	1.4566	2.0416
0.7800	1.4151	1.4428	2.0420
0.7900	1.4294	1.4289	2.0425
0.8000	1.4437	1.4148	2.0429
0.8100	1.4577	1.4006	2.0433
0.8200	1.4717	1.3862	2.0437
0.8300	1.4855	1.3718	2.0442
0.8400	1.4991	1.3571	2.0446
0.8500	1.5126	1.3424	2.0450
0.8600	1.5260	1.3275	2.0454
0.8700	1.5391	1.3125	2.0458
0.8800	1.5522	1.2973	2.0462
0.8900	1.5651	1.2820	2.0465
0.9000	1.5778	1.2666	2.0469
0.9100	1.5904	1.2511	2.0473
0.9200	1.6029	1.2354	2.0477
0.9300	1.6151	1.2196	2.0480
0.9400	1.6273	1.2037	2.0484
0.9500	1.6392	1.1877	2.0488
0.9600	1.6510	1.1715	2.0491
0.9700	1.6626	1.1552	2.0495
0.9800	1.6741	1.1389	2.0498
0.9900	1.6854	1.1224	2.0502
1.0000	1.6966	1.1057	2.0505
1.0100	1.7075	1.0890	2.0508
1.0200	1.7183	1.0722	2.0511
1.0300	1.7290	1.0553	2.0515
1.0400	1.7394	1.0382	2.0518
1.0500	1.7497	1.0211	2.0521
1.0600	1.7599	1.0038	2.0524
1.0700	1.7698	0.9865	2.0527
1.0800	1.7796	0.9690	2.0530
1.0900	1.7892	0.9515	2.0533
1.1000	1.7986	0.9338	2.0535
1.1100	1.8079	0.9161	2.0538
1.1200	1.8169	0.8983	2.0541
1.1300	1.8258	0.8804	2.0544
1.1400	1.8345	0.8624	2.0546
1.1500	1.8431	0.8443	2.0549
1.1600	1.8514	0.8261	2.0551
1.1700	1.8596	0.8079	2.0554
1.1800	1.8676	0.7895	2.0556
1.1900	1.8754	0.7711	2.0558
1.2000	1.8830	0.7526	2.0561
1.2100	1.8904	0.7340	2.0563
1.2200	1.8977	0.7154	2.0565
1.2300	1.9048	0.6967	2.0567
1.2400	1.9116	0.6779	2.0569
1.2500	1.9183	0.6591	2.0571
1.2600	1.9248	0.6401	2.0573
1.2700	1.9311	0.6212	2.0575
1.2800	1.9372	0.6021	2.0577
1.2900	1.9432	0.5830	2.0579
1.3000	1.9489	0.5639	2.0581
1.3100	1.9544	0.5446	2.0582
1.3200	1.9598	0.5254	2.0584
1.3300	1.9649	0.5061	2.0585
1.3400	1.9699	0.4867	2.0587
1.3500	1.9747	0.4673	2.0588
1.3600	1.9792	0.4478	2.0590
1.3700	1.9836	0.4283	2.0591
1.3800	1.9878	0.4087	2.0592
1.3900	1.9918	0.3891	2.0593
1.4000	1.9956	0.3695	2.0595
1.4100	1.9992	0.3498	2.0596
1.4200	2.0026	0.3301	2.0597
1.4300	2.0058	0.3104	2.0598
1.4400	2.0088	0.2906	2.0598
1.4500	2.0116	0.2708	2.0599
1.4600	2.0142	0.2509	2.0600
1.4700	2.0166	0.2311	2.0601
1.4800	2.0188	0.2112	2.0602
1.4900	2.0208	0.1913	2.0602
1.5000	2.0227	0.1714	2.0603
1.5100	2.0243	0.1515	2.0603
1.5200	2.0257	0.1315	2.0604
1.5300	2.0269	0.1116	2.0604
1.5400	2.0279	0.0916	2.0604
1.5500	2.0287	0.0716	2.0604
1.5600	2.0294	0.0516	2.0605
1.5700	2.0298	0.0316	2.0605
1.5800	2.0300	0.0116	2.0605
1.5900	2.0300	-0.0084	2.0605
1.6000	2.0298	-0.0284	2.0605
1.6100	2.0294	-0.0484	2.0605
1.6200	2.0288	-0.0684	2.0605
1.6300	2.0281	-0.0884	2.0604
1.6400	2.0271	-0.1083	2.0604
1.6500	2.0259	-0.1283	2.0604
1.6600	2.0245	-0.1483	2.0603
1.6700	2.0229	-0.1682	2.0603
1.6800	2.0212	-0.1881	2.0602
1.6900	2.0192	-0.2080	2.0602
1.7000	2.0170	-0.2279	2.0601
1.7100	2.0146	-0.2478	2.0600
1.7200	2.0120	-0.2676	2.0599
1.7300	2.0093	-0.2874	2.0599
1.7400	2.0063	-0.3072	2.0598
1.7500	2.0031	-0.3269	2.0597
1.7600	1.9998	-0.3466	2.0596
1.7700	1.9962	-0.3663	2.0595
1.7800	1.9924	-0.3860	2.0594
1.7900	1.9885	-0.4056	2.0592
1.8000	1.9843	-0.4251	2.0591
1.8100	1.9800	-0.4446	2.0590
1.8200	1.9754	-0.4641	2.0588
1.8300	1.9707	-0.4836	2.0587
1.8400	1.9658	-0.5029	2.0586
1.8500	1.9606	-0.5223	2.0584
1.8600	1.9553	-0.5415	2.0582
1.8700	1.9498	-0.5608	2.0581
1.8800	1.9441	-0.5799	2.0579
1.8900	1.9382	-0.5991	2.0577
1.9000	1.9321	-0.6181	2.0575
1.9100	1.9258	-0.6371	2.0574
1.9200	1.9194	-0.6560	2.0572
1.9300	1.9127	-0.6749	2.0570
1.9400	1.9059	-0.6937	2.0568
1.9500	1.8988	-0.7124	2.0566
1.9600	1.8916	-0.7310	2.0563
1.9700	1.8842	-0.7496	2.0561
1.9800	1.8766	-0.7681	2.0559
1.9900	1.8689	-0.7866	2.0557
2.0000	1.8609	-0.8049	2.0554
2.0100	1.8528	-0.8232	2.0552
2.0200	1.8444	-0.8414	2.0549
2.0300	1.8359	-0.8595	2.0547
2.0400	1.8272	-0.8775	2.0544
2.0500	1.8184	-0.8954	2.0541
2.0600	1.8093	-0.9132	2.0539
2.0700	1.8001	-0.9310	2.0536
2.0800	1.7907	-0.9486	2.0533
2.0900	1.7811	-0.9662	2.0530
2.1000	1.7714	-0.9837	2.0527
2.1100	1.7615	-1.0010	2.0524
2.1200	1.7514	-1.0183	2.0521
2.1300	1.7411	-1.0355	2.0518
2.1400	1.7307	-1.0525	2.0515
2.1500	1.7201	-1.0695	2.0512
2.1600	1.7093	-1.0863	2.0509
2.1700	1.6983	-1.1031	2.0505
2.1800	1.6872	-1.1197	2.0502
2.1900	1.6759	-1.1362	2.0499
2.2000	1.6645	-1.1526	2.0495
2.2100	1.6529	-1.1689	2.0492
2.2200	1.6411	-1.1851	2.0488
2.2300	1.6292	-1.2011	2.0485
2.2400	1.6171	-1.2170	2.0481
2.2500	1.6048	-1.2329	2.0477
2.2600	1.5924	-1.2485	2.0474
2.2700	1.5799	-1.2641	2.0470
2.2800	1.5672	-1.2795	2.0466
2.2900	1.5543	-1.2948	2.0462
2.3000	1.5413	-1.3100	2.0458
2.3100	1.5281	-1.3251	2.0454
2.3200	1.5148	-1.3400	2.0450
2.3300	1.5013	-1.3548	2.0446
2.3400	1.4877	-1.3694	2.0442
2.3500	1.4739	-1.3839	2.0438
2.3600	1.4600	-1.3983	2.0434
2.3700	1.4459	-1.4125	2.0430
2.3800	1.4317	-1.4266	2.0425
2.3900	1.4174	-1.4405	2.0421
2.4000	1.4029	-1.4543	2.0417
2.4100	1.3883	-1.4680	2.0412
2.4200	1.3736	-1.4815	2.0408
2.4300	1.3587	-1.4949	2.0403
2.4400	1.3437	-1.5081	2.0399
2.4500	1.3285	-1.5211	2.0394
2.4600	1.3133	-1.5341	2.0390
2.4700	1.2978	-1.5468	2.0385
2.4800	1.2823	-1.5594	2.0380
2.4900	1.2667	-1.5719	2.0376
2.5000	1.2509	-1.5841	2.0371
2.5100	1.2350	-1.5963	2.0366
2.5200	1.2190	-1.6082	2.0361
2.5300	1.2028	-1.6201	2.0357
2.5400	1.1866	-1.6317	2.0352
2.5500	1.1702	-1.6432	2.0347
2.5600	1.1537	-1.6545	2.0342
2.5700	1.1371	-1.6657	2.0337
2.5800	1.1204	-1.6766	2.0332
2.5900	1.1036	-1.6875	2.0327
2.6000	1.0866	-1.6981	2.0322
2.6100	1.0696	-1.7086	2.0317
2.6200	1.0525	-1.7189	2.0311
2.6300	1.0352	-1.7290	2.0306
2.6400	1.0179	-1.7390	2.0301
2.6500	1.0004	-1.7488	2.0296
2.6600	0.9829	-1.7584	2.0291
2.6700	0.9653	-1.7679	2.0285
2.6800	0.9475	-1.7771	2.0280
2.6900	0.9297	-1.7862	2.0275
2.7000	0.9118	-1.7951	2.0269
2.7100	0.8938	-1.8038	2.0264
2.7200	0.8757	-1.8124	2.0258
2.7300	0.8576	-1.8208	2.0253
2.7400	0.8393	-1.8289	2.0247
2.7500	0.8210	-1.8369	2.0242
2.7600	0.8026	-1.8448	2.0236
2.7700	0.7841	-1.8524	2.0231
2.7800	0.7656	-1.8598	2.0225
2.7900	0.7469	-1.8671	2.0220
2.8000	0.7282	-1.8742	2.0214
2.8100	0.7094	-1.8811	2.0208
2.8200	0.6906	-1.8878	2.0203
2.8300	0.6717	-1.8943	2.0197
2.8400	0.6527	-1.9006	2.0191
2.8500	0.6337	-1.9067	2.0186
2.8600	0.6146	-1.9127	2.0180
2.8700	0.5954	-1.9184	2.0174
2.8800	0.5762	-1.9240	2.0168
2.8900	0.5569	-1.9293	2.0163
2.9000	0.5376	-1.9345	2.0157
2.9100	0.5182	-1.9395	2.0151
2.9200	0.4988	-1.9443	2.0145
2.9300	0.4794	-1.9489	2.0139
2.9400	0.4599	-1.9533	2.0133
2.9500	0.4403	-1.9575	2.0128
2.9600	0.4207	-1.9615	2.0122
2.9700	0.4011	-1.9653	2.0116
2.9800	0.3814	-1.9689	2.0110
2.9900	0.3617	-1.9723	2.0104
3.0000	0.3420	-1.9755	2.0098
3.0100	0.3222	-1.9785	2.0092
3.0200	0.3024	-1.9814	2.0086
3.0300	0.2826	-1.9840	2.0080
3.0400	0.2627	-1.9864	2.0074
3.0500	0.2428	-1.9886	2.0068
3.0600	0.2229	-1.9907	2.0062
3.0700	0.2030	-1.9925	2.0056
3.0800	0.1831	-1.9941	2.0050
3.0900	0.1631	-1.9956	2.0044
3.1000	0.1432	-1.9968	2.0038
3.1100	0.1232	-1.9978	2.0032
3.1200	0.1032	-1.9987	2.0026
3.1300	0.0832	-1.9993	2.0020
3.1400	0.0632	-1.9997	2.0014
3.1500	0.0432	-1.9999	2.0008
3.1600	0.0232	-2.0000	2.0002
3.1700	0.0032	-1.9998	1.9996
3.1800	-0.0168	-1.9994	1.9990
3.1900	-0.0367	-1.9989	1.9984
3.2000	-0.0567	-1.9981	1.9978
3.2100	-0.0767	-1.9971	1.9972
3.2200	-0.0967	-1.9960	1.9966
3.2300	-0.1166	-1.9946	1.9960
3.2400	-0.1366	-1.9930	1.9954
3.2500	-0.1565	-1.9913	1.9948
3.2600	-0.1764	-1.9893	1.9942
3.2700	-0.1963	-1.9871	1.9936
3.2800	-0.2161	-1.9848	1.9930
3.2900	-0.2360	-1.9822	1.9924
3.3000	-0.2558	-1.9795	1.9918
3.3100	-0.2756	-1.9765	1.9912
3.3200	-0.2953	-1.9733	1.9907
3.3300	-0.3150	-1.9700	1.9901
3.3400	-0.3347	-1.9664	1.9895
3.3500	-0.3544	-1.9627	1.9889
3.3600	-0.3740	-1.9588	1.9883
3.3700	-0.3935	-1.9546	1.9877
3.3800	-0.4130	-1.9503	1.9871
3.3900	-0.4325	-1.9458	1.9865
3.4000	-0.4520	-1.9410	1.9859
3.4100	-0.4713	-1.9361	1.9854
3.4200	-0.4907	-1.9310	1.9848
3.4300	-0.5100	-1.9257	1.9842
3.4400	-0.5292	-1.9202	1.9836
3.4500	-0.5484	-1.9145	1.9830
3.4600	-0.5675	-1.9086	1.9825
3.4700	-0.5865	-1.9026	1.9819
3.4800	-0.6055	-1.8963	1.9813
3.4900	-0.6245	-1.8899	1.9808
3.5000	-0.6433	-1.8832	1.9802
3.5100	-0.6621	-1.8764	1.9796
3.5200	-0.6809	-1.8694	1.9791
3.5300	-0.6995	-1.8622	1.9785
3.5400	-0.7181	-1.8548	1.9779
3.5500	-0.7366	-1.8472	1.9774
3.5600	-0.7550	-1.8394	1.9768
3.5700	-0.7734	-1.8315	1.9763
3.5800	-0.7917	-1.8234	1.9757
3.5900	-0.8099	-1.8151	1.9752
3.6000	-0.8280	-1.8066	1.9746
3.6100	-0.8460	-1.7979	1.9741
3.6200	-0.8639	-1.7891	1.9736
3.6300	-0.8818	-1.7800	1.9730
3.6400	-0.8995	-1.7708	1.9725
3.6500	-0.9172	-1.7614	1.9720
3.6600	-0.9348	-1.7519	1.9714
3.6700	-0.9522	-1.7421	1.9709
3.6800	-0.9696	-1.7322	1.9704
3.6900	-0.9869	-1.7221	1.9699
3.7000	-1.0040	-1.7119	1.9693
3.7100	-1.0211	-1.7015	1.9688
3.7200	-1.0381	-1.6909	1.9683
3.7300	-1.0549	-1.6801	1.9678
3.7400	-1.0717	-1.6692	1.9673
3.7500	-1.0883	-1.6581	1.9668
3.7600	-1.1048	-1.6468	1.9663
3.7700	-1.1212	-1.6354	1.9658
3.7800	-1.1375	-1.6238	1.9653
3.7900	-1.1537	-1.6120	1.9648
3.8000	-1.1698	-1.6001	1.9644
3.8100	-1.1857	-1.5880	1.9639
3.8200	-1.2015	-1.5758	1.9634
3.8300	-1.2172	-1.5634	1.9629
3.8400	-1.2328	-1.5508	1.9625
3.8500	-1.2483	-1.5381	1.9620
3.8600	-1.2636	-1.5253	1.9615
3.8700	-1.2788	-1.5123	1.9611
3.8800	-1.2938	-1.4991	1.9606
3.8900	-1.3087	-1.4858	1.9602
3.9000	-1.3235	-1.4723	1.9597
3.9100	-1.3382	-1.4587	1.9593
3.9200	-1.3527	-1.4450	1.9589
3.9300	-1.3671	-1.4311	1.9584
3.9400	-1.3813	-1.4170	1.9580
3.9500	-1.3954	-1.4028	1.9576
3.9600	-1.4094	-1.3885	1.9572
3.9700	-1.4232	-1.3740	1.9567
3.9800	-1.4369	-1.3594	1.9563
3.9900	-1.4504	-1.3447	1.9559
4.0000	-1.4638	-1.3298	1.9555
4.0100	-1.4770	-1.3148	1.9551
4.0200	-1.4900	-1.2997	1.9547
4.0300	-1.5030	-1.2844	1.9543
4.0400	-1.5157	-1.2690	1.9539
4.0500	-1.5283	-1.2535	1.9536
4.0600	-1.5408	-1.2379	1.9532
4.0700	-1.5531	-1.2221	1.9528
4.0800	-1.5652	-1.2062	1.9525
4.0900	-1.5772	-1.1902	1.9521
4.1000	-1.5891	-1.1741	1.9517
4.1100	-1.6007	-1.1578	1.9514
4.1200	-1.6122	-1.1414	1.9510
4.1300	-1.6235	-1.1250	1.9507
4.1400	-1.6347	-1.1084	1.9504
4.1500	-1.6457	-1.0917	1.9500
4.1600	-1.6565	-1.0749	1.9497
4.1700	-1.6672	-1.0579	1.9494
4.1800	-1.6777	-1.0409	1.9491
4.1900	-1.6880	-1.0238	1.9488
4.2000	-1.6982	-1.0065	1.9485
4.2100	-1.7082	-0.9892	1.9482
4.2200	-1.7180	-0.9718	1.9479
4.2300	-1.7276	-0.9543	1.9476
4.2400	-1.7370	-0.9366	1.9473
4.2500	-1.7463	-0.9189	1.9470
4.2600	-1.7554	-0.9011	1.9467
4.2700	-1.7643	-0.8832	1.9465
4.2800	-1.7731	-0.8652	1.9462
4.2900	-1.7816	-0.8471	1.9459
4.3000	-1.7900	-0.8290	1.9457
4.3100	-1.7982	-0.8107	1.9454
4.3200	-1.8062	-0.7924	1.9452
4.3300	-1.8141	-0.7740	1.9450
4.3400	-1.8217	-0.7555	1.9447
4.3500	-1.8292	-0.7370	1.9445
4.3600	-1.8365	-0.7183	1.9443
4.3700	-1.8435	-0.6996	1.9441
4.3800	-1.8504	-0.6809	1.9439
4.3900	-1.8572	-0.6620	1.9437
4.4000	-1.8637	-0.6431	1.9435
4.4100	-1.8700	-0.6242	1.9433
4.4200	-1.8762	-0.6051	1.9431
4.4300	-1.8821	-0.5860	1.9429
4.4400	-1.8879	-0.5669	1.9427
4.4500	-1.8935	-0.5477	1.9426
4.4600	-1.8988	-0.5284	1.9424
4.4700	-1.9040	-0.5091	1.9423
4.4800	-1.9090	-0.4897	1.9421
4.4900	-1.9138	-0.4703	1.9420
4.5000	-1.9184	-0.4509	1.9418
4.5100	-1.9228	-0.4313	1.9417
4.5200	-1.9271	-0.4118	1.9416
4.5300	-1.9311	-0.3922	1.9414
4.5400	-1.9349	-0.3726	1.9413
4.5500	-1.9385	-0.3529	1.9412
4.5600	-1.9420	-0.3332	1.9411
4.5700	-1.9452	-0.3135	1.9410
4.5800	-1.9482	-0.2937	1.9409
4.5900	-1.9511	-0.2739	1.9408
4.6000	-1.9537	-0.2541	1.9408
4.6100	-1.9562	-0.2342	1.9407
4.6200	-1.9584	-0.2143	1.9406
4.6300	-1.9604	-0.1945	1.9406
4.6400	-1.9623	-0.1745	1.9405
4.6500	-1.9639	-0.1546	1.9405
4.6600	-1.9654	-0.1347	1.9404
4.6700	-1.9666	-0.1147	1.9404
4.6800	-1.9677	-0.0947	1.9403
4.6900	-1.9685	-0.0747	1.9403
4.7000	-1.9692	-0.0548	1.9403
4.7100	-1.9696	-0.0348	1.9403
4.7200	-1.9699	-0.0148	1.9403
4.7300	-1.9699	0.0052	1.9403
4.7400	-1.9698	0.0252	1.9403
4.7500	-1.9694	0.0452	1.9403
4.7600	-1.9688	0.0652	1.9403
4.7700	-1.9681	0.0852	1.9403
4.7800	-1.9671	0.1052	1.9404
4.7900	-1.9660	0.1252	1.9404
4.8000	-1.9646	0.1451	1.9404
4.8100	-1.9631	0.1651	1.9405
4.8200	-1.9613	0.1850	1.9405
4.8300	-1.9594	0.2049	1.9406
4.8400	-1.9572	0.2248	1.9407
4.8500	-1.9549	0.2446	1.9407
4.8600	-1.9524	0.2645	1.9408
4.8700	-1.9496	0.2843	1.9409
4.8800	-1.9467	0.3041	1.9410
4.8900	-1.9435	0.3238	1.9411
4.9000	-1.9402	0.3435	1.9412
4.9100	-1.9367	0.3632	1.9413
4.9200	-1.9329	0.3829	1.9414
4.9300	-1.9290	0.4025	1.9415
4.9400	-1.9249	0.4220	1.9416
4.9500	-1.9206	0.4416	1.9418
4.9600	-1.9160	0.4611	1.9419
4.9700	-1.9113	0.4805	1.9420
4.9800	-1.9064	0.4999	1.9422
4.9900	-1.9013	0.5192	1.9423
5.0000	-1.8961	0.5385	1.9425
5.0100	-1.8906	0.5577	1.9427
5.0200	-1.8849	0.5769	1.9428
5.0300	-1.8790	0.5960	1.9430
5.0400	-1.8730	0.6151	1.9432
5.0500	-1.8667	0.6341	1.9434
5.0600	-1.8603	0.6530	1.9436
5.0700	-1.8537	0.6719	1.9438
5.0800	-1.8469	0.6907	1.9440
5.0900	-1.8399	0.7095	1.9442
5.1000	-1.8327	0.7281	1.9444
5.1100	-1.8253	0.7467	1.9446
5.1200	-1.8177	0.7652	1.9449
5.1300	-1.8100	0.7837	1.9451
5.1400	-1.8021	0.8020	1.9453
5.1500	-1.7939	0.8203	1.9456
5.1600	-1.7857	0.8385	1.9458
5.1700	-1.7772	0.8566	1.9461
5.1800	-1.7685	0.8747	1.9463
5.1900	-1.7597	0.8926	1.9466
5.2000	-1.7507	0.9104	1.9469
5.2100	-1.7415	0.9282	1.9472
5.2200	-1.7321	0.9459	1.9474
5.2300	-1.7226	0.9635	1.9477
5.2400	-1.7128	0.9809	1.9480
5.2500	-1.7029	0.9983	1.9483
5.2600	-1.6929	1.0156	1.9486
5.2700	-1.6826	1.0328	1.9489
5.2800	-1.6722	1.0498	1.9492
5.2900	-1.6616	1.0668	1.9496
5.3000	-1.6509	1.0837	1.9499
5.3100	-1.6400	1.1004	1.9502
5.3200	-1.6289	1.1171	1.9505
5.3300	-1.6176	1.1336	1.9509
5.3400	-1.6062	1.1500	1.9512
5.3500	-1.5946	1.1663	1.9516
5.3600	-1.5829	1.1825	1.9519
5.3700	-1.5710	1.1986	1.9523
5.3800	-1.5589	1.2145	1.9527
5.3900	-1.5467	1.2304	1.9530
5.4000	-1.5343	1.2461	1.9534
5.4100	-1.5218	1.2617	1.9538
5.4200	-1.5091	1.2771	1.9542
5.4300	-1.4962	1.2924	1.9545
5.4400	-1.4832	1.3076	1.9549
5.4500	-1.4701	1.3227	1.9553
5.4600	-1.4568	1.3376	1.9557
5.4700	-1.4433	1.3524	1.9561
5.4800	-1.4297	1.3671	1.9565
5.4900	-1.4160	1.3816	1.9570
5.5000	-1.4021	1.3960	1.9574
5.5100	-1.3881	1.4103	1.9578
5.5200	-1.3739	1.4244	1.9582
5.5300	-1.3596	1.4384	1.9587
5.5400	-1.3451	1.4522	1.9591
5.5500	-1.3305	1.4659	1.9595
5.5600	-1.3158	1.4794	1.9600
5.5700	-1.3009	1.4928	1.9604
5.5800	-1.2859	1.5060	1.9609
5.5900	-1.2708	1.5191	1.9613
5.6000	-1.2556	1.5320	1.9618
5.6100	-1.2402	1.5448	1.9623
5.6200	-1.2247	1.5574	1.9627
5.6300	-1.2090	1.5699	1.9632
5.6400	-1.1933	1.5822	1.9637
5.6500	-1.1774	1.5944	1.9641
5.6600	-1.1614	1.6064	1.9646
5.6700	-1.1453	1.6182	1.9651
5.6800	-1.1290	1.6299	1.9656
5.6900	-1.1127	1.6414	1.9661
5.7000	-1.0962	1.6527	1.9666
5.7100	-1.0796	1.6639	1.9671
5.7200	-1.0629	1.6749	1.9676
5.7300	-1.0461	1.6858	1.9681
5.7400	-1.0292	1.6965	1.9686
5.7500	-1.0122	1.7070	1.9691
5.7600	-0.9951	1.7173	1.9696
5.7700	-0.9778	1.7275	1.9702
5.7800	-0.9605	1.7375	1.9707
5.7900	-0.9431	1.7473	1.9712
5.8000	-0.9256	1.7569	1.9717
5.8100	-0.9079	1.7664	1.9723
5.8200	-0.8902	1.7757	1.9728
5.8300	-0.8724	1.7848	1.9733
5.8400	-0.8545	1.7937	1.9739
5.8500	-0.8366	1.8025	1.9744
5.8600	-0.8185	1.8111	1.9750
5.8700	-0.8003	1.8195	1.9755
5.8800	-0.7821	1.8277	1.9760
5.8900	-0.7638	1.8357	1.9766
5.9000	-0.7454	1.8436	1.9772
5.9100	-0.7269	1.8512	1.9777
5.9200	-0.7084	1.8587	1.9783
5.9300	-0.6897	1.8660	1.9788
5.9400	-0.6710	1.8731	1.9794
5.9500	-0.6523	1.8800	1.9800
5.9600	-0.6334	1.8867	1.9805
5.9700	-0.6145	1.8933	1.9811
5.9800	-0.5956	1.8996	1.9817
5.9900	-0.5766	1.9058	1.9822
6.0000	-0.5575	1.9118	1.9828
6.0100	-0.5383	1.9175	1.9834
6.0200	-0.5191	1.9231	1.9840
6.0300	-0.4999	1.9285	1.9845
6.0400	-0.4806	1.9337	1.9851
6.0500	-0.4612	1.9387	1.9857
6.0600	-0.4418	1.9436	1.9863
6.0700	-0.4223	1.9482	1.9869
6.0800	-0.4028	1.9526	1.9875
6.0900	-0.3833	1.9568	1.9881
6.1000	-0.3637	1.9609	1.9886
6.1100	-0.3440	1.9647	1.9892
6.1200	-0.3244	1.9684	1.9898
6.1300	-0.3047	1.9718	1.9904
6.1400	-0.2849	1.9751	1.9910
6.1500	-0.2652	1.9781	1.9916
6.1600	-0.2454	1.9810	1.9922
6.1700	-0.2256	1.9836	1.9928
6.1800	-0.2057	1.9861	1.9934
6.1900	-0.1858	1.9883	1.9940
6.2000	-0.1660	1.9904	1.9946
6.2100	-0.1460	1.9923	1.9952
6.2200	-0.1261	1.9939	1.9958
6.2300	-0.1062	1.9954	1.9964
6.2400	-0.0862	1.9966	1.9970
6.2500	-0.0662	1.9977	1.9976
6.2600	-0.0462	1.9986	1.9982
6.2700	-0.0263	1.9992	1.9988
6.2800	-0.0063	1.9997	1.9994
6.2900	0.0137	2.0000	2.0000
6.3000	0.0337	2.0000	2.0006
6.3100	0.0537	1.9999	2.0012
6.3200	0.0737	1.9995	2.0018
6.3300	0.0937	1.9990	2.0024
6.3400	0.1137	1.9983	2.0030
6.3500	0.1337	1.9973	2.0036
6.3600	0.1537	1.9962	2.0042
6.3700	0.1736	1.9949	2.0048
6.3800	0.1936	1.9933	2.0054
6.3900	0.2135	1.9916	2.0060
6.4000	0.2334	1.9897	2.0066
6.4100	0.2533	1.9875	2.0072
6.4200	0.2731	1.9852	2.0078
6.4300	0.2930	1.9827	2.0084
6.4400	0.3128	1.9799	2.0090
6.4500	0.3326	1.9770	2.0096
6.4600	0.3523	1.9739	2.0102
6.4700	0.3720	1.9706	2.0108
6.4800	0.3917	1.9671	2.0114
6.4900	0.4114	1.9633	2.0120
6.5000	0.4310	1.9594	2.0126
6.5100	0.4506	1.9553	2.0132
6.5200	0.4701	1.9510	2.0137
6.5300	0.4896	1.9465	2.0143
6.5400	0.5090	1.9418	2.0149
6.5500	0.5284	1.9369	2.0155
6.5600	0.5478	1.9319	2.0161
6.5700	0.5671	1.9266	2.0167
6.5800	0.5863	1.9211	2.0172
6.5900	0.6055	1.9155	2.0178
6.6000	0.6246	1.9096	2.0184
6.6100	0.6437	1.9036	2.0190
6.6200	0.6627	1.8974	2.0195
6.6300	0.6816	1.8909	2.0201
6.6400	0.7005	1.8843	2.0207
6.6500	0.7193	1.8775	2.0212
6.6600	0.7381	1.8705	2.0218
6.6700	0.7567	1.8634	2.0224
6.6800	0.7753	1.8560	2.0229
6.6900	0.7938	1.8485	2.0235
6.7000	0.8123	1.8407	2.0240
6.7100	0.8307	1.8328	2.0246
6.7200	0.8489	1.8247	2.0252
6.7300	0.8671	1.8164	2.0257
6.7400	0.8853	1.8080	2.0262
6.7500	0.9033	1.7993	2.0268
6.7600	0.9213	1.7905	2.0273
6.7700	0.9391	1.7815	2.0279
6.7800	0.9569	1.7723	2.0284
6.7900	0.9746	1.7630	2.0289
6.8000	0.9921	1.7534	2.0295
6.8100	1.0096	1.7437	2.0300
6.8200	1.0270	1.7339	2.0305
6.8300	1.0443	1.7238	2.0310
6.8400	1.0615	1.7136	2.0315
6.8500	1.0786	1.7032	2.0321
6.8600	1.0956	1.6926	2.0326
6.8700	1.1124	1.6819	2.0331
6.8800	1.1292	1.6710	2.0336
6.8900	1.1458	1.6599	2.0341
6.9000	1.1624	1.6486	2.0346
6.9100	1.1788	1.6372	2.0351
6.9200	1.1951	1.6257	2.0356
6.9300	1.2113	1.6139	2.0361
6.9400	1.2274	1.6020	2.0365
6.9500	1.2434	1.5900	2.0370
6.9600	1.2592	1.5778	2.0375
6.9700	1.2749	1.5654	2.0380
6.9800	1.2905	1.5529	2.0384
6.9900	1.3060	1.5402	2.0389
7.0000	1.3213	1.5274	2.0394
7.0100	1.3365	1.5144	2.0398
7.0200	1.3516	1.5012	2.0403
7.0300	1.3666	1.4879	2.0407
7.0400	1.3814	1.4745	2.0412
7.0500	1.3960	1.4609	2.0416
7.0600	1.4106	1.4472	2.0421
7.0700	1.4250	1.4333	2.0425
7.0800	1.4392	1.4193	2.0429
7.0900	1.4534	1.4051	2.0433
7.1000	1.4674	1.3908	2.0438
7.1100	1.4812	1.3764	2.0442
7.1200	1.4949	1.3618	2.0446
7.1300	1.5084	1.3471	2.0450
7.1400	1.5218	1.3322	2.0454
7.1500	1.5351	1.3173	2.0458
7.1600	1.5482	1.3021	2.0462
7.1700	1.5611	1.2869	2.0466
7.1800	1.5739	1.2715	2.0470
7.1900	1.5865	1.2560	2.0473
7.2000	1.5990	1.2404	2.0477
7.2100	1.6113	1.2246	2.0481
7.2200	1.6235	1.2088	2.0485
7.2300	1.6355	1.1928	2.0488
7.2400	1.6474	1.1767	2.0492
7.2500	1.6591	1.1604	2.0495
7.2600	1.6706	1.1441	2.0499
7.2700	1.6819	1.1276	2.0502
7.2800	1.6931	1.1111	2.0506
7.2900	1.7042	1.0944	2.0509
7.3000	1.7150	1.0776	2.0512
7.3100	1.7257	1.0607	2.0515
7.3200	1.7362	1.0437	2.0519
7.3300	1.7466	1.0265	2.0522
7.3400	1.7568	1.0093	2.0525
7.3500	1.7668	0.9920	2.0528
7.3600	1.7766	0.9746	2.0531
7.3700	1.7863	0.9571	2.0534
7.3800	1.7957	0.9395	2.0536
7.3900	1.8050	0.9218	2.0539
7.4000	1.8142	0.9040	2.0542
7.4100	1.8231	0.8861	2.0545
7.4200	1.8319	0.8681	2.0547
7.4300	1.8405	0.8501	2.0550
7.4400	1.8489	0.8319	2.0552
7.4500	1.8571	0.8137	2.0555
7.4600	1.8652	0.7954	2.0557
7.4700	1.8730	0.7770	2.0560
7.4800	1.8807	0.7585	2.0562
7.4900	1.8882	0.7400	2.0564
7.5000	1.8955	0.7214	2.0566
7.5100	1.9026	0.7027	2.0569
7.5200	1.9096	0.6839	2.0571
7.5300	1.9163	0.6651	2.0573
7.5400	1.9229	0.6462	2.0575
7.5500	1.9292	0.6272	2.0577
7.5600	1.9354	0.6082	2.0578
7.5700	1.9414	0.5891	2.0580
7.5800	1.9472	0.5700	2.0582
7.5900	1.9528	0.5508	2.0584
7.6000	1.9582	0.5315	2.0585
7.6100	1.9634	0.5122	2.0587
7.6200	1.9684	0.4929	2.0588
7.6300	1.9733	0.4734	2.0590
7.6400	1.9779	0.4540	2.0591
7.6500	1.9824	0.4345	2.0593
7.6600	1.9866	0.4149	2.0594
7.6700	1.9907	0.3954	2.0595
7.6800	1.9945	0.3757	2.0596
7.6900	1.9982	0.3561	2.0597
7.7000	2.0016	0.3364	2.0598
7.7100	2.0049	0.3166	2.0599
7.7200	2.0080	0.2969	2.0600
7.7300	2.0108	0.2771	2.0601
7.7400	2.0135	0.2573	2.0602
7.7500	2.0160	0.2374	2.0603
7.7600	2.0183	0.2175	2.0603
7.7700	2.0203	0.1977	2.0604
7.7800	2.0222	0.1777	2.0605
7.7900	2.0239	0.1578	2.0605
7.8000	2.0254	0.1379	2.0606
7.8100	2.0266	0.1179	2.0606
7.8200	2.0277	0.0979	2.0606
7.8300	2.0286	0.0780	2.0607
7.8400	2.0293	0.0580	2.0607
7.8500	2.0298	0.0380	2.0607
7.8600	2.0300	0.0180	2.0607
7.8700	2.0301	-0.0020	2.0607
7.8800	2.0300	-0.0220	2.0607
7.8900	2.0297	-0.0420	2.0607
7.9000	2.0292	-0.0620	2.0607
7.9100	2.0284	-0.0820	2.0606
7.9200	2.0275	-0.1020	2.0606
7.9300	2.0264	-0.1219	2.0606
7.9400	2.0251	-0.1419	2.0605
7.9500	2.0236	-0.1618	2.0605
7.9600	2.0218	-0.1818	2.0604
7.9700	2.0199	-0.2017	2.0604
7.9800	2.0178	-0.2216	2.0603
7.9900	2.0155	-0.2414	2.0603
8.0000	2.0130	-0.2613	2.0602
8.0100	2.0103	-0.2811	2.0601
8.0200	2.0074	-0.3009	2.0600
8.0300	2.0043	-0.3206	2.0599
8.0400	2.0009	-0.3404	2.0598
8.0500	1.9974	-0.3600	2.0597
8.0600	1.9937	-0.3797	2.0596
8.0700	1.9899	-0.3993	2.0595
8.0800	1.9858	-0.4189	2.0594
8.0900	1.9815	-0.4384	2.0592
8.1000	1.9770	-0.4579	2.0591
8.1100	1.9723	-0.4774	2.0590
8.1200	1.9674	-0.4968	2.0588
8.1300	1.9624	-0.5161	2.0587
8.1400	1.9571	-0.5354	2.0585
8.1500	1.9517	-0.5547	2.0583
8.1600	1.9460	-0.5738	2.0582
8.1700	1.9402	-0.5930	2.0580
8.1800	1.9342	-0.6120	2.0578
8.1900	1.9280	-0.6311	2.0576
8.2000	1.9216	-0.6500	2.0574
8.2100	1.9150	-0.6689	2.0572
8.2200	1.9082	-0.6877	2.0570
8.2300	1.9012	-0.7064	2.0568
8.2400	1.8940	-0.7251	2.0566
8.2500	1.8867	-0.7437	2.0564
8.2600	1.8792	-0.7622	2.0562
8.2700	1.8715	-0.7807	2.0559
8.2800	1.8636	-0.7991	2.0557
8.2900	1.8555	-0.8174	2.0554
8.3000	1.8472	-0.8356	2.0552
8.3100	1.8388	-0.8537	2.0549
8.3200	1.8301	-0.8718	2.0547
8.3300	1.8213	-0.8897	2.0544
8.3400	1.8123	-0.9076	2.0541
8.3500	1.8032	-0.9254	2.0539
8.3600	1.7938	-0.9430	2.0536
8.3700	1.7843	-0.9606	2.0533
8.3800	1.7746	-0.9781	2.0530
8.3900	1.7648	-0.9955	2.0527
8.4000	1.7547	-1.0128	2.0524
8.4100	1.7445	-1.0300	2.0521
8.4200	1.7341	-1.0471	2.0518
8.4300	1.7236	-1.0641	2.0515
8.4400	1.7128	-1.0810	2.0511
8.4500	1.7019	-1.0977	2.0508
8.4600	1.6909	-1.1144	2.0505
8.4700	1.6797	-1.1310	2.0501
8.4800	1.6683	-1.1474	2.0498
8.4900	1.6567	-1.1637	2.0495
8.5000	1.6450	-1.1799	2.0491
8.5100	1.6331	-1.1960	2.0487
8.5200	1.6211	-1.2120	2.0484
8.5300	1.6089	-1.2278	2.0480
8.5400	1.5965	-1.2436	2.0476
8.5500	1.5840	-1.2592	2.0473
8.5600	1.5713	-1.2746	2.0469
8.5700	1.5585	-1.2900	2.0465
8.5800	1.5455	-1.3052	2.0461
8.5900	1.5324	-1.3203	2.0457
8.6000	1.5191	-1.3352	2.0453
8.6100	1.5057	-1.3501	2.0449
8.6200	1.4921	-1.3648	2.0445
8.6300	1.4784	-1.3793	2.0441
8.6400	1.4645	-1.3937	2.0437
8.6500	1.4505	-1.4080	2.0432
8.6600	1.4364	-1.4221	2.0428
8.6700	1.4221	-1.4361	2.0424
8.6800	1.4077	-1.4500	2.0420
8.6900	1.3931	-1.4637	2.0415
8.7000	1.3784	-1.4772	2.0411
8.7100	1.3635	-1.4906	2.0406
8.7200	1.3486	-1.5039	2.0402
8.7300	1.3335	-1.5170	2.0397
8.7400	1.3182	-1.5300	2.0393
8.7500	1.3029	-1.5428	2.0388
8.7600	1.2874	-1.5554	2.0383
8.7700	1.2718	-1.5679	2.0379
8.7800	1.2560	-1.5802	2.0374
8.7900	1.2402	-1.5924	2.0369
8.8000	1.2242	-1.6044	2.0364
8.8100	1.2081	-1.6163	2.0359
8.8200	1.1919	-1.6280	2.0355
8.8300	1.1755	-1.6395	2.0350
8.8400	1.1591	-1.6509	2.0345
8.8500	1.1425	-1.6621	2.0340
8.8600	1.1258	-1.6732	2.0335
8.8700	1.1090	-1.6840	2.0330
8.8800	1.0921	-1.6947	2.0325
8.8900	1.0751	-1.7053	2.0319
8.9000	1.0580	-1.7156	2.0314
8.9100	1.0408	-1.7258	2.0309
8.9200	1.0235	-1.7358	2.0304
8.9300	1.0061	-1.7457	2.0299
8.9400	0.9886	-1.7554	2.0293
8.9500	0.9710	-1.7649	2.0288
8.9600	0.9533	-1.7742	2.0283
8.9700	0.9355	-1.7833	2.0277
8.9800	0.9176	-1.7923	2.0272
8.9900	0.8997	-1.8011	2.0267
9.0000	0.8816	-1.8097	2.0261
9.0100	0.8635	-1.8181	2.0256
9.0200	0.8453	-1.8263	2.0250
9.0300	0.8270	-1.8344	2.0245
9.0400	0.8086	-1.8423	2.0239
9.0500	0.7901	-1.8500	2.0233
9.0600	0.7716	-1.8575	2.0228
9.0700	0.7530	-1.8648	2.0222
9.0800	0.7343	-1.8719	2.0217
9.0900	0.7155	-1.8789	2.0211
9.1000	0.6967	-1.8856	2.0205
9.1100	0.6778	-1.8922	2.0200
9.1200	0.6589	-1.8986	2.0194
9.1300	0.6398	-1.9048	2.0188
9.1400	0.6208	-1.9108	2.0182
9.1500	0.6016	-1.9166	2.0177
9.1600	0.5824	-1.9222	2.0171
9.1700	0.5632	-1.9277	2.0165
9.1800	0.5439	-1.9329	2.0159
9.1900	0.5245	-1.9379	2.0153
9.2000	0.5051	-1.9428	2.0148
9.2100	0.4857	-1.9474	2.0142
9.2200	0.4662	-1.9519	2.0136
9.2300	0.4466	-1.9561	2.0130
9.2400	0.4271	-1.9602	2.0124
9.2500	0.4074	-1.9641	2.0118
9.2600	0.3878	-1.9678	2.0112
9.2700	0.3681	-1.9712	2.0106
9.2800	0.3484	-1.9745	2.0100
9.2900	0.3286	-1.9776	2.0094
9.3000	0.3088	-1.9805	2.0088
9.3100	0.2890	-1.9832	2.0082
9.3200	0.2691	-1.9857	2.0076
9.3300	0.2493	-1.9880	2.0070
9.3400	0.2294	-1.9900	2.0064
9.3500	0.2095	-1.9919	2.0058
9.3600	0.1895	-1.9936	2.0052
9.3700	0.1696	-1.9951	2.0046
9.3800	0.1496	-1.9964	2.0040
9.3900	0.1297	-1.9975	2.0034
9.4000	0.1097	-1.9984	2.0028
9.4100	0.0897	-1.9991	2.0022
9.4200	0.0697	-1.9996	2.0016
9.4300	0.0497	-1.9999	2.0010
9.4400	0.0297	-2.0000	2.0004
9.4500	0.0097	-1.9999	1.9998
9.4600	-0.0103	-1.9996	1.9992
9.4700	-0.0303	-1.9991	1.9986
9.4800	-0.0503	-1.9984	1.9980
9.4900	-0.0702	-1.9975	1.9974
9.5000	-0.0902	-1.9964	1.9968
9.5100	-0.1102	-1.9951	1.9962
9.5200	-0.1301	-1.9936	1.9956
9.5300	-0.1500	-1.9919	1.9950
9.5400	-0.1699	-1.9900	1.9944
9.5500	-0.1898	-1.9879	1.9938
9.5600	-0.2097	-1.9856	1.9932
9.5700	-0.2295	-1.9831	1.9926
9.5800	-0.2494	-1.9804	1.9920
9.5900	-0.2692	-1.9775	1.9914
9.6000	-0.2889	-1.9744	1.9908
9.6100	-0.3086	-1.9711	1.9902
9.6200	-0.3283	-1.9676	1.9896
9.6300	-0.3480	-1.9639	1.9890
9.6400	-0.3676	-1.9600	1.9884
9.6500	-0.3872	-1.9560	1.9878
9.6600	-0.4067	-1.9517	1.9873
9.6700	-0.4262	-1.9472	1.9867
9.6800	-0.4457	-1.9426	1.9861
9.6900	-0.4651	-1.9377	1.9855
9.7000	-0.4844	-1.9327	1.9849
9.7100	-0.5037	-1.9274	1.9843
9.7200	-0.5230	-1.9220	1.9838
9.7300	-0.5422	-1.9164	1.9832
9.7400	-0.5613	-1.9105	1.9826
9.7500	-0.5804	-1.9045	1.9820
9.7600	-0.5994	-1.8983	1.9814
9.7700	-0.6183	-1.8919	1.9809
9.7800	-0.6372	-1.8854	1.9803
9.7900	-0.6560	-1.8786	1.9797
9.8000	-0.6748	-1.8716	1.9792
9.8100	-0.6935	-1.8645	1.9786
9.8200	-0.7121	-1.8572	1.9780
9.8300	-0.7306	-1.8496	1.9775
9.8400	-0.7491	-1.8419	1.9769
9.8500	-0.7675	-1.8341	1.9764
9.8600	-0.7858	-1.8260	1.9758
9.8700	-0.8040	-1.8177	1.9753
9.8800	-0.8221	-1.8093	1.9747
9.8900	-0.8402	-1.8007	1.9742
9.9000	-0.8581	-1.7919	1.9736
9.9100	-0.8760	-1.7829	1.9731
9.9200	-0.8938	-1.7738	1.9726
9.9300	-0.9115	-1.7644	1.9720
9.9400	-0.9291	-1.7549	1.9715
9.9500	-0.9466	-1.7453	1.9710
9.9600	-0.9640	-1.7354	1.9704
9.9700	-0.9813	-1.7254	1.9699
9.9800	-0.9985	-1.7152	1.9694
9.9900	-1.0156	-1.7048	1.9689
10.0000	-1.0326	-1.6943	1.9684
10.0100	-1.0495	-1.6836	1.9679
10.0200	-1.0662	-1.6727	1.9674
10.0300	-1.0829	-1.6616	1.9669
10.0400	-1.0995	-1.6504	1.9664
10.0500	-1.1159	-1.6390	1.9659
10.0600	-1.1323	-1.6275	1.9654
10.0700	-1.1485	-1.6158	1.9649
10.0800	-1.1646	-1.6039	1.9644
10.0900	-1.1806	-1.5919	1.9639
10.1000	-1.1964	-1.5797	1.9634
10.1100	-1.2121	-1.5674	1.9630
10.1200	-1.2278	-1.5549	1.9625
10.1300	-1.2432	-1.5422	1.9620
10.1400	-1.2586	-1.5294	1.9616
10.1500	-1.2738	-1.5164	1.9611
10.1600	-1.2889	-1.5033	1.9606
10.1700	-1.3039	-1.4900	1.9602
10.1800	-1.3187	-1.4766	1.9597
10.1900	-1.3334	-1.4631	1.9593
10.2000	-1.3480	-1.4494	1.9589
10.2100	-1.3624	-1.4355	1.9584
10.2200	-1.3767	-1.4215	1.9580
10.2300	-1.3908	-1.4074	1.9576
10.2400	-1.4048	-1.3931	1.9571
10.2500	-1.4187	-1.3787	1.9567
10.2600	-1.4324	-1.3641	1.9563
10.2700	-1.4460	-1.3494	1.9559
10.2800	-1.4594	-1.3346	1.9555
10.2900	-1.4727	-1.3196	1.9551
10.3000	-1.4858	-1.3045	1.9547
10.3100	-1.4988	-1.2893	1.9543
10.3200	-1.5116	-1.2739	1.9539
10.3300	-1.5242	-1.2585	1.9535