# Time	Position	Velocity	Total Energy
0.0000	0.0000	8.0000	32.0000
0.0010	0.0080	8.0000	32.0000
0.0020	0.0160	8.0000	32.0000
0.0030	0.0240	8.0000	32.0000
0.0040	0.0320	7.9999	32.0000
0.0050	0.0400	7.9999	32.0000
0.0060	0.0480	7.9999	32.0000
0.0070	0.0560	7.9998	32.0000
0.0080	0.0640	7.9997	32.0000
0.0090	0.0720	7.9997	32.0000
0.0100	0.0800	7.9996	32.0000
0.0110	0.0880	7.9995	32.0000
0.0120	0.0960	7.9994	32.0000
0.0130	0.1040	7.9993	32.0000
0.0140	0.1120	7.9992	32.0000
0.0150	0.1200	7.9991	32.0000
0.0160	0.1280	7.9990	32.0000
0.0170	0.1360	7.9988	32.0000
0.0180	0.1440	7.9987	32.0000
0.0190	0.1520	7.9986	32.0000
0.0200	0.1600	7.9984	32.0000
0.0210	0.1680	7.9982	32.0000
0.0220	0.1760	7.9981	32.0000
0.0230	0.1840	7.9979	32.0000
0.0240	0.1920	7.9977	32.0000
0.0250	0.2000	7.9975	32.0000
0.0260	0.2080	7.9973	32.0000
0.0270	0.2160	7.9971	32.0000
0.0280	0.2240	7.9969	32.0000
0.0290	0.2320	7.9966	32.0000
0.0300	0.2400	7.9964	32.0000
0.0310	0.2480	7.9962	32.0000
0.0320	0.2560	7.9959	32.0000
0.0330	0.2640	7.9956	32.0000
0.0340	0.2719	7.9954	32.0000
0.0350	0.2799	7.9951	32.0000
0.0360	0.2879	7.9948	32.0000
0.0370	0.2959	7.9945	32.0000
0.0380	0.3039	7.9942	32.0000
0.0390	0.3119	7.9939	32.0000
0.0400	0.3199	7.9936	32.0000
0.0410	0.3279	7.9933	32.0000
0.0420	0.3359	7.9929	32.0000
0.0430	0.3439	7.9926	32.0000
0.0440	0.3519	7.9923	32.0000
0.0450	0.3599	7.9919	32.0000
0.0460	0.3679	7.9915	32.0000
0.0470	0.3759	7.9912	32.0000
0.0480	0.3839	7.9908	32.0000
0.0490	0.3918	7.9904	32.0000
0.0500	0.3998	7.9900	32.0000
0.0510	0.4078	7.9896	32.0000
0.0520	0.4158	7.9892	32.0000
0.0530	0.4238	7.9888	32.0000
0.0540	0.4318	7.9883	32.0000
0.0550	0.4398	7.9879	32.0000
0.0560	0.4478	7.9875	32.0000
0.0570	0.4558	7.9870	32.0000
0.0580	0.4637	7.9865	32.0000
0.0590	0.4717	7.9861	32.0000
0.0600	0.4797	7.9856	32.0000
0.0610	0.4877	7.9851	32.0000
0.0620	0.4957	7.9846	32.0000
0.0630	0.5037	7.9841	32.0000
0.0640	0.5117	7.9836	32.0000
0.0650	0.5196	7.9831	32.0000
0.0660	0.5276	7.9826	32.0000
0.0670	0.5356	7.9821	32.0000
0.0680	0.5436	7.9815	32.0000
0.0690	0.5516	7.9810	32.0000
0.0700	0.5595	7.9804	32.0000
0.0710	0.5675	7.9798	32.0000
0.0720	0.5755	7.9793	32.0000
0.0730	0.5835	7.9787	32.0000
0.0740	0.5915	7.9781	32.0000
0.0750	0.5994	7.9775	32.0000
0.0760	0.6074	7.9769	32.0000
0.0770	0.6154	7.9763	32.0000
0.0780	0.6234	7.9757	32.0000
0.0790	0.6313	7.9750	32.0000
0.0800	0.6393	7.9744	32.0000
0.0810	0.6473	7.9738	32.0000
0.0820	0.6553	7.9731	32.0000
0.0830	0.6632	7.9725	32.0000
0.0840	0.6712	7.9718	32.0000
0.0850	0.6792	7.9711	32.0000
0.0860	0.6872	7.9704	32.0000
0.0870	0.6951	7.9697	32.0000
0.0880	0.7031	7.9690	32.0000
0.0890	0.7111	7.9683	32.0000
0.0900	0.7190	7.9676	32.0000
0.0910	0.7270	7.9669	32.0000
0.0920	0.7350	7.9662	32.0000
0.0930	0.7429	7.9654	32.0000
0.0940	0.7509	7.9647	32.0000
0.0950	0.7589	7.9639	32.0000
0.0960	0.7668	7.9632	32.0000
0.0970	0.7748	7.9624	32.0000
0.0980	0.7827	7.9616	32.0000
0.0990	0.7907	7.9608	32.0000
0.1000	0.7987	7.9600	32.0000
0.1010	0.8066	7.9592	32.0000
0.1020	0.8146	7.9584	32.0000
0.1030	0.8225	7.9576	32.0000
0.1040	0.8305	7.9568	32.0000
0.1050	0.8385	7.9559	32.0000
0.1060	0.8464	7.9551	32.0000
0.1070	0.8544	7.9542	32.0000
0.1080	0.8623	7.9534	32.0000
0.1090	0.8703	7.9525	32.0000
0.1100	0.8782	7.9516	32.0000
0.1110	0.8862	7.9508	32.0000
0.1120	0.8941	7.9499	32.0000
0.1130	0.9021	7.9490	32.0000
0.1140	0.9100	7.9481	32.0000
0.1150	0.9180	7.9472	32.0000
0.1160	0.9259	7.9462	32.0000
0.1170	0.9339	7.9453	32.0000
0.1180	0.9418	7.9444	32.0000
0.1190	0.9498	7.9434	32.0000
0.1200	0.9577	7.9425	32.0000
0.1210	0.9656	7.9415	32.0000
0.1220	0.9736	7.9405	32.0000
0.1230	0.9815	7.9396	32.0000
0.1240	0.9895	7.9386	32.0000
0.1250	0.9974	7.9376	32.0000
0.1260	1.0053	7.9366	32.0000
0.1270	1.0133	7.9356	32.0000
0.1280	1.0212	7.9346	32.0000
0.1290	1.0291	7.9335	32.0000
0.1300	1.0371	7.9325	32.0000
0.1310	1.0450	7.9315	32.0000
0.1320	1.0529	7.9304	32.0000
0.1330	1.0609	7.9293	32.0000
0.1340	1.0688	7.9283	32.0000
0.1350	1.0767	7.9272	32.0000
0.1360	1.0846	7.9261	32.0000
0.1370	1.0926	7.9250	32.0000
0.1380	1.1005	7.9239	32.0000
0.1390	1.1084	7.9228	32.0000
0.1400	1.1163	7.9217	32.0000
0.1410	1.1243	7.9206	32.0000
0.1420	1.1322	7.9195	32.0000
0.1430	1.1401	7.9183	32.0000
0.1440	1.1480	7.9172	32.0000
0.1450	1.1559	7.9160	32.0000
0.1460	1.1639	7.9149	32.0000
0.1470	1.1718	7.9137	32.0000
0.1480	1.1797	7.9125	32.0000
0.1490	1.1876	7.9114	32.0000
0.1500	1.1955	7.9102	32.0000
0.1510	1.2034	7.9090	32.0000
0.1520	1.2113	7.9078	32.0000
0.1530	1.2192	7.9065	32.0000
0.1540	1.2271	7.9053	32.0000
0.1550	1.2350	7.9041	32.0000
0.1560	1.2429	7.9029	32.0000
0.1570	1.2508	7.9016	32.0000
0.1580	1.2587	7.9004	32.0000
0.1590	1.2666	7.8991	32.0000
0.1600	1.2745	7.8978	32.0000
0.1610	1.2824	7.8965	32.0000
0.1620	1.2903	7.8953	32.0000
0.1630	1.2982	7.8940	32.0000
0.1640	1.3061	7.8927	32.0000
0.1650	1.3140	7.8913	32.0000
0.1660	1.3219	7.8900	32.0000
0.1670	1.3298	7.8887	32.0000
0.1680	1.3377	7.8874	32.0000
0.1690	1.3456	7.8860	32.0000
0.1700	1.3535	7.8847	32.0000
0.1710	1.3613	7.8833	32.0000
0.1720	1.3692	7.8820	32.0000
0.1730	1.3771	7.8806	32.0000
0.1740	1.3850	7.8792	32.0000
0.1750	1.3929	7.8778	32.0000
0.1760	1.4007	7.8764	32.0000
0.1770	1.4086	7.8750	32.0000
0.1780	1.4165	7.8736	32.0000
0.1790	1.4244	7.8722	32.0000
0.1800	1.4322	7.8707	32.0000
0.1810	1.4401	7.8693	32.0000
0.1820	1.4480	7.8679	32.0000
0.1830	1.4558	7.8664	32.0000
0.1840	1.4637	7.8650	32.0000
0.1850	1.4716	7.8635	32.0000
0.1860	1.4794	7.8620	32.0000
0.1870	1.4873	7.8605	32.0000
0.1880	1.4952	7.8590	32.0000
0.1890	1.5030	7.8575	32.0000
0.1900	1.5109	7.8560	32.0000
0.1910	1.5187	7.8545	32.0000
0.1920	1.5266	7.8530	32.0000
0.1930	1.5344	7.8515	32.0000
0.1940	1.5423	7.8499	32.0000
0.1950	1.5501	7.8484	32.0000
0.1960	1.5580	7.8468	32.0000
0.1970	1.5658	7.8453	32.0000
0.1980	1.5737	7.8437	32.0000
0.1990	1.5815	7.8421	32.0000
0.2000	1.5894	7.8405	32.0000
0.2010	1.5972	7.8389	32.0000
0.2020	1.6050	7.8373	32.0000
0.2030	1.6129	7.8357	32.0000
0.2040	1.6207	7.8341	32.0000
0.2050	1.6285	7.8325	32.0000
0.2060	1.6364	7.8309	32.0000
0.2070	1.6442	7.8292	32.0000
0.2080	1.6520	7.8276	32.0000
0.2090	1.6599	7.8259	32.0000
0.2100	1.6677	7.8242	32.0000
0.2110	1.6755	7.8226	32.0000
0.2120	1.6833	7.8209	32.0000
0.2130	1.6911	7.8192	32.0000
0.2140	1.6990	7.8175	32.0000
0.2150	1.7068	7.8158	32.0000
0.2160	1.7146	7.8141	32.0000
0.2170	1.7224	7.8124	32.0000
0.2180	1.7302	7.8107	32.0000
0.2190	1.7380	7.8089	32.0000
0.2200	1.7458	7.8072	32.0000
0.2210	1.7536	7.8054	32.0000
0.2220	1.7614	7.8037	32.0000
0.2230	1.7693	7.8019	32.0000
0.2240	1.7771	7.8001	32.0000
0.2250	1.7849	7.7984	32.0000
0.2260	1.7926	7.7966	32.0000
0.2270	1.8004	7.7948	32.0000
0.2280	1.8082	7.7930	32.0000
0.2290	1.8160	7.7912	32.0000
0.2300	1.8238	7.7893	32.0000
0.2310	1.8316	7.7875	32.0000
0.2320	1.8394	7.7857	32.0000
0.2330	1.8472	7.7838	32.0000
0.2340	1.8550	7.7820	32.0000
0.2350	1.8627	7.7801	32.0000
0.2360	1.8705	7.7782	32.0000
0.2370	1.8783	7.7764	32.0000
0.2380	1.8861	7.7745	32.0000
0.2390	1.8938	7.7726	32.0000
0.2400	1.9016	7.7707	32.0000
0.2410	1.9094	7.7688	32.0000
0.2420	1.9172	7.7669	32.0000
0.2430	1.9249	7.7650	32.0000
0.2440	1.9327	7.7630	32.0000
0.2450	1.9405	7.7611	32.0000
0.2460	1.9482	7.7592	32.0000
0.2470	1.9560	7.7572	32.0000
0.2480	1.9637	7.7552	32.0000
0.2490	1.9715	7.7533	32.0000
0.2500	1.9792	7.7513	32.0000
0.2510	1.9870	7.7493	32.0000
0.2520	1.9947	7.7473	32.0000
0.2530	2.0025	7.7453	32.0000
0.2540	2.0102	7.7433	32.0000
0.2550	2.0180	7.7413	32.0000
0.2560	2.0257	7.7393	32.0000
0.2570	2.0334	7.7373	32.0000
0.2580	2.0412	7.7352	32.0000
0.2590	2.0489	7.7332	32.0000
0.2600	2.0566	7.7311	32.0000
0.2610	2.0644	7.7291	32.0000
0.2620	2.0721	7.7270	32.0000
0.2630	2.0798	7.7249	32.0000
0.2640	2.0876	7.7228	32.0000
0.2650	2.0953	7.7207	32.0000
0.2660	2.1030	7.7186	32.0000
0.2670	2.1107	7.7165	32.0000
0.2680	2.1184	7.7144	32.0000
0.2690	2.1261	7.7123	32.0000
0.2700	2.1339	7.7102	32.0000
0.2710	2.1416	7.7080	32.0000
0.2720	2.1493	7.7059	32.0000
0.2730	2.1570	7.7037	32.0000
0.2740	2.1647	7.7016	32.0000
0.2750	2.1724	7.6994	32.0000
0.2760	2.1801	7.6972	32.0000
0.2770	2.1878	7.6950	32.0000
0.2780	2.1955	7.6928	32.0000
0.2790	2.2032	7.6907	32.0000
0.2800	2.2108	7.6884	32.0000
0.2810	2.2185	7.6862	32.0000
0.2820	2.2262	7.6840	32.0000
0.2830	2.2339	7.6818	32.0000
0.2840	2.2416	7.6795	32.0000
0.2850	2.2493	7.6773	32.0000
0.2860	2.2569	7.6750	32.0000
0.2870	2.2646	7.6728	32.0000
0.2880	2.2723	7.6705	32.0000
0.2890	2.2800	7.6682	32.0000
0.2900	2.2876	7.6660	32.0000
0.2910	2.2953	7.6637	32.0000
0.2920	2.3029	7.6614	32.0000
0.2930	2.3106	7.6591	32.0000
0.2940	2.3183	7.6567	32.0000
0.2950	2.3259	7.6544	32.0000
0.2960	2.3336	7.6521	32.0000
0.2970	2.3412	7.6497	32.0000
0.2980	2.3489	7.6474	32.0000
0.2990	2.3565	7.6451	32.0000
0.3000	2.3642	7.6427	32.0000
0.3010	2.3718	7.6403	32.0000
0.3020	2.3794	7.6379	32.0000
0.3030	2.3871	7.6356	32.0000
0.3040	2.3947	7.6332	32.0000
0.3050	2.4023	7.6308	32.0000
0.3060	2.4100	7.6284	32.0000
0.3070	2.4176	7.6260	32.0000
0.3080	2.4252	7.6235	32.0000
0.3090	2.4328	7.6211	32.0000
0.3100	2.4405	7.6187	32.0000
0.3110	2.4481	7.6162	32.0000
0.3120	2.4557	7.6138	32.0000
0.3130	2.4633	7.6113	32.0000
0.3140	2.4709	7.6088	32.0000
0.3150	2.4785	7.6064	32.0000
0.3160	2.4861	7.6039	32.0000
0.3170	2.4937	7.6014	32.0000
0.3180	2.5013	7.5989	32.0000
0.3190	2.5089	7.5964	32.0000
0.3200	2.5165	7.5939	32.0000
0.3210	2.5241	7.5914	32.0000
0.3220	2.5317	7.5888	32.0000
0.3230	2.5393	7.5863	32.0000
0.3240	2.5469	7.5838	32.0000
0.3250	2.5545	7.5812	32.0000
0.3260	2.5621	7.5786	32.0000
0.3270	2.5696	7.5761	32.0000
0.3280	2.5772	7.5735	32.0000
0.3290	2.5848	7.5709	32.0000
0.3300	2.5923	7.5683	32.0000
0.3310	2.5999	7.5657	32.0000
0.3320	2.6075	7.5631	32.0000
0.3330	2.6150	7.5605	32.0000
0.3340	2.6226	7.5579	32.0000
0.3350	2.6302	7.5553	32.0000
0.3360	2.6377	7.5526	32.0000
0.3370	2.6453	7.5500	32.0000
0.3380	2.6528	7.5474	32.0000
0.3390	2.6604	7.5447	32.0000
0.3400	2.6679	7.5420	32.0000
0.3410	2.6754	7.5394	32.0000
0.3420	2.6830	7.5367	32.0000
0.3430	2.6905	7.5340	32.0000
0.3440	2.6980	7.5313	32.0000
0.3450	2.7056	7.5286	32.0000
0.3460	2.7131	7.5259	32.0000
0.3470	2.7206	7.5232	32.0000
0.3480	2.7281	7.5205	32.0000
0.3490	2.7357	7.5177	32.0000
0.3500	2.7432	7.5150	32.0000
0.3510	2.7507	7.5122	32.0000
0.3520	2.7582	7.5095	32.0000
0.3530	2.7657	7.5067	32.0000
0.3540	2.7732	7.5039	32.0000
0.3550	2.7807	7.5012	32.0000
0.3560	2.7882	7.4984	32.0000
0.3570	2.7957	7.4956	32.0000
0.3580	2.8032	7.4928	32.0000
0.3590	2.8107	7.4900	32.0000
0.3600	2.8182	7.4872	32.0000
0.3610	2.8257	7.4844	32.0000
0.3620	2.8332	7.4815	32.0000
0.3630	2.8406	7.4787	32.0000
0.3640	2.8481	7.4758	32.0000
0.3650	2.8556	7.4730	32.0000
0.3660	2.8631	7.4701	32.0000
0.3670	2.8705	7.4673	32.0000
0.3680	2.8780	7.4644	32.0000
0.3690	2.8855	7.4615	32.0000
0.3700	2.8929	7.4586	32.0000
0.3710	2.9004	7.4557	32.0000
0.3720	2.9078	7.4528	32.0000
0.3730	2.9153	7.4499	32.0000
0.3740	2.9227	7.4470	32.0000
0.3750	2.9302	7.4441	32.0000
0.3760	2.9376	7.4411	32.0000
0.3770	2.9451	7.4382	32.0000
0.3780	2.9525	7.4352	32.0000
0.3790	2.9599	7.4323	32.0000
0.3800	2.9674	7.4293	32.0000
0.3810	2.9748	7.4263	32.0000
0.3820	2.9822	7.4234	32.0000
0.3830	2.9896	7.4204	32.0000
0.3840	2.9971	7.4174	32.0000
0.3850	3.0045	7.4144	32.0000
0.3860	3.0119	7.4114	32.0000
0.3870	3.0193	7.4084	32.0000
0.3880	3.0267	7.4053	32.0000
0.3890	3.0341	7.4023	32.0000
0.3900	3.0415	7.3993	32.0000
0.3910	3.0489	7.3962	32.0000
0.3920	3.0563	7.3932	32.0000
0.3930	3.0637	7.3901	32.0000
0.3940	3.0711	7.3870	32.0000
0.3950	3.0785	7.3840	32.0000
0.3960	3.0858	7.3809	32.0000
0.3970	3.0932	7.3778	32.0000
0.3980	3.1006	7.3747	32.0000
0.3990	3.1080	7.3716	32.0000
0.4000	3.1153	7.3685	32.0000
0.4010	3.1227	7.3654	32.0000
0.4020	3.1301	7.3622	32.0000
0.4030	3.1374	7.3591	32.0000
0.4040	3.1448	7.3560	32.0000
0.4050	3.1522	7.3528	32.0000
0.4060	3.1595	7.3497	32.0000
0.4070	3.1668	7.3465	32.0000
0.4080	3.1742	7.3433	32.0000
0.4090	3.1815	7.3402	32.0000
0.4100	3.1889	7.3370	32.0000
0.4110	3.1962	7.3338	32.0000
0.4120	3.2035	7.3306	32.0000
0.4130	3.2109	7.3274	32.0000
0.4140	3.2182	7.3242	32.0000
0.4150	3.2255	7.3209	32.0000
0.4160	3.2328	7.3177	32.0000
0.4170	3.2402	7.3145	32.0000
0.4180	3.2475	7.3112	32.0000
0.4190	3.2548	7.3080	32.0000
0.4200	3.2621	7.3047	32.0000
0.4210	3.2694	7.3014	32.0000
0.4220	3.2767	7.2982	32.0000
0.4230	3.2840	7.2949	32.0000
0.4240	3.2913	7.2916	32.0000
0.4250	3.2986	7.2883	32.0000
0.4260	3.3059	7.2850	32.0000
0.4270	3.3131	7.2817	32.0000
0.4280	3.3204	7.2784	32.0000
0.4290	3.3277	7.2751	32.0000
0.4300	3.3350	7.2717	32.0000
0.4310	3.3422	7.2684	32.0000
0.4320	3.3495	7.2650	32.0000
0.4330	3.3568	7.2617	32.0000
0.4340	3.3640	7.2583	32.0000
0.4350	3.3713	7.2550	32.0000
0.4360	3.3785	7.2516	32.0000
0.4370	3.3858	7.2482	32.0000
0.4380	3.3930	7.2448	32.0000
0.4390	3.4003	7.2414	32.0000
0.4400	3.4075	7.2380	32.0000
0.4410	3.4148	7.2346	32.0000
0.4420	3.4220	7.2312	32.0000
0.4430	3.4292	7.2278	32.0000
0.4440	3.4364	7.2243	32.0000
0.4450	3.4437	7.2209	32.0000
0.4460	3.4509	7.2174	32.0000
0.4470	3.4581	7.2140	32.0000
0.4480	3.4653	7.2105	32.0000
0.4490	3.4725	7.2071	32.0000
0.4500	3.4797	7.2036	32.0000
0.4510	3.4869	7.2001	32.0000
0.4520	3.4941	7.1966	32.0000
0.4530	3.5013	7.1931	32.0000
0.4540	3.5085	7.1896	32.0000
0.4550	3.5157	7.1861	32.0000
0.4560	3.5229	7.1826	32.0000
0.4570	3.5301	7.1790	32.0000
0.4580	3.5372	7.1755	32.0000
0.4590	3.5444	7.1720	32.0000
0.4600	3.5516	7.1684	32.0000
0.4610	3.5588	7.1649	32.0000
0.4620	3.5659	7.1613	32.0000
0.4630	3.5731	7.1577	32.0000
0.4640	3.5802	7.1542	32.0000
0.4650	3.5874	7.1506	32.0000
0.4660	3.5945	7.1470	32.0000
0.4670	3.6017	7.1434	32.0000
0.4680	3.6088	7.1398	32.0000
0.4690	3.6160	7.1362	32.0000
0.4700	3.6231	7.1325	32.0000
0.4710	3.6302	7.1289	32.0000
0.4720	3.6373	7.1253	32.0000
0.4730	3.6445	7.1216	32.0000
0.4740	3.6516	7.1180	32.0000
0.4750	3.6587	7.1143	32.0000
0.4760	3.6658	7.1107	32.0000
0.4770	3.6729	7.1070	32.0000
0.4780	3.6800	7.1033	32.0000
0.4790	3.6871	7.0996	32.0000
0.4800	3.6942	7.0960	32.0000
0.4810	3.7013	7.0923	32.0000
0.4820	3.7084	7.0886	32.0000
0.4830	3.7155	7.0848	32.0000
0.4840	3.7226	7.0811	32.0000
0.4850	3.7297	7.0774	32.0000
0.4860	3.7367	7.0737	32.0000
0.4870	3.7438	7.0699	32.0000
0.4880	3.7509	7.0662	32.0000
0.4890	3.7579	7.0624	32.0000
0.4900	3.7650	7.0587	32.0000
0.4910	3.7721	7.0549	32.0000
0.4920	3.7791	7.0511	32.0000
0.4930	3.7862	7.0473	32.0000
0.4940	3.7932	7.0435	32.0000
0.4950	3.8003	7.0397	32.0000
0.4960	3.8073	7.0359	32.0000
0.4970	3.8143	7.0321	32.0000
0.4980	3.8214	7.0283	32.0000
0.4990	3.8284	7.0245	32.0000
0.5000	3.8354	7.0207	32.0000
0.5010	3.8424	7.0168	32.0000
0.5020	3.8494	7.0130	32.0000
0.5030	3.8564	7.0091	32.0000
0.5040	3.8635	7.0053	32.0000
0.5050	3.8705	7.0014	32.0000
0.5060	3.8775	6.9975	32.0000
0.5070	3.8845	6.9936	32.0000
0.5080	3.8914	6.9898	32.0000
0.5090	3.8984	6.9859	32.0000
0.5100	3.9054	6.9820	32.0000
0.5110	3.9124	6.9780	32.0000
0.5120	3.9194	6.9741	32.0000
0.5130	3.9263	6.9702	32.0000
0.5140	3.9333	6.9663	32.0000
0.5150	3.9403	6.9623	32.0000
0.5160	3.9472	6.9584	32.0000
0.5170	3.9542	6.9544	32.0000
0.5180	3.9611	6.9505	32.0000
0.5190	3.9681	6.9465	32.0000
0.5200	3.9750	6.9426	32.0000
0.5210	3.9820	6.9386	32.0000
0.5220	3.9889	6.9346	32.0000
0.5230	3.9959	6.9306	32.0000
0.5240	4.0028	6.9266	32.0000
0.5250	4.0097	6.9226	32.0000
0.5260	4.0166	6.9186	32.0000
0.5270	4.0235	6.9146	32.0000
0.5280	4.0305	6.9105	32.0000
0.5290	4.0374	6.9065	32.0000
0.5300	4.0443	6.9025	32.0000
0.5310	4.0512	6.8984	32.0000
0.5320	4.0581	6.8944	32.0000
0.5330	4.0650	6.8903	32.0000
0.5340	4.0718	6.8862	32.0000
0.5350	4.0787	6.8821	32.0000
0.5360	4.0856	6.8781	32.0000
0.5370	4.0925	6.8740	32.0000
0.5380	4.0994	6.8699	32.0000
0.5390	4.1062	6.8658	32.0000
0.5400	4.1131	6.8617	32.0000
0.5410	4.1199	6.8576	32.0000
0.5420	4.1268	6.8534	32.0000
0.5430	4.1337	6.8493	32.0000
0.5440	4.1405	6.8452	32.0000
0.5450	4.1473	6.8410	32.0000
0.5460	4.1542	6.8369	32.0000
0.5470	4.1610	6.8327	32.0000
0.5480	4.1678	6.8285	32.0000
0.5490	4.1747	6.8244	32.0000
0.5500	4.1815	6.8202	32.0000
0.5510	4.1883	6.8160	32.0000
0.5520	4.1951	6.8118	32.0000
0.5530	4.2019	6.8076	32.0000
0.5540	4.2087	6.8034	32.0000
0.5550	4.2155	6.7992	32.0000
0.5560	4.2223	6.7950	32.0000
0.5570	4.2291	6.7908	32.0000
0.5580	4.2359	6.7865	32.0000
0.5590	4.2427	6.7823	32.0000
0.5600	4.2495	6.7780	32.0000
0.5610	4.2563	6.7738	32.0000
0.5620	4.2630	6.7695	32.0000
0.5630	4.2698	6.7653	32.0000
0.5640	4.2766	6.7610	32.0000
0.5650	4.2833	6.7567	32.0000
0.5660	4.2901	6.7524	32.0000
0.5670	4.2968	6.7481	32.0000
0.5680	4.3036	6.7438	32.0000
0.5690	4.3103	6.7395	32.0000
0.5700	4.3171	6.7352	32.0000
0.5710	4.3238	6.7309	32.0000
0.5720	4.3305	6.7266	32.0000
0.5730	4.3372	6.7222	32.0000
0.5740	4.3440	6.7179	32.0000
0.5750	4.3507	6.7135	32.0000
0.5760	4.3574	6.7092	32.0000
0.5770	4.3641	6.7048	32.0000
0.5780	4.3708	6.7005	32.0000
0.5790	4.3775	6.6961	32.0000
0.5800	4.3842	6.6917	32.0000
0.5810	4.3909	6.6873	32.0000
0.5820	4.3976	6.6829	32.0000
0.5830	4.4042	6.6785	32.0000
0.5840	4.4109	6.6741	32.0000
0.5850	4.4176	6.6697	32.0000
0.5860	4.4243	6.6653	32.0000
0.5870	4.4309	6.6608	32.0000
0.5880	4.4376	6.6564	32.0000
0.5890	4.4442	6.6520	32.0000
0.5900	4.4509	6.6475	32.0000
0.5910	4.4575	6.6431	32.0000
0.5920	4.4642	6.6386	32.0000
0.5930	4.4708	6.6341	32.0000
0.5940	4.4774	6.6297	32.0000
0.5950	4.4841	6.6252	32.0000
0.5960	4.4907	6.6207	32.0000
0.5970	4.4973	6.6162	32.0000
0.5980	4.5039	6.6117	32.0000
0.5990	4.5105	6.6072	32.0000
0.6000	4.5171	6.6027	32.0000
0.6010	4.5237	6.5982	32.0000
0.6020	4.5303	6.5936	32.0000
0.6030	4.5369	6.5891	32.0000
0.6040	4.5435	6.5846	32.0000
0.6050	4.5501	6.5800	32.0000
0.6060	4.5567	6.5755	32.0000
0.6070	4.5632	6.5709	32.0000
0.6080	4.5698	6.5663	32.0000
0.6090	4.5764	6.5618	32.0000
0.6100	4.5829	6.5572	32.0000
0.6110	4.5895	6.5526	32.0000
0.6120	4.5960	6.5480	32.0000
0.6130	4.6026	6.5434	32.0000
0.6140	4.6091	6.5388	32.0000
0.6150	4.6157	6.5342	32.0000
0.6160	4.6222	6.5296	32.0000
0.6170	4.6287	6.5249	32.0000
0.6180	4.6353	6.5203	32.0000
0.6190	4.6418	6.5157	32.0000
0.6200	4.6483	6.5110	32.0000
0.6210	4.6548	6.5064	32.0000
0.6220	4.6613	6.5017	32.0000
0.6230	4.6678	6.4971	32.0000
0.6240	4.6743	6.4924	32.0000
0.6250	4.6808	6.4877	32.0000
0.6260	4.6873	6.4830	32.0000
0.6270	4.6937	6.4783	32.0000
0.6280	4.7002	6.4736	32.0000
0.6290	4.7067	6.4689	32.0000
0.6300	4.7132	6.4642	32.0000
0.6310	4.7196	6.4595	32.0000
0.6320	4.7261	6.4548	32.0000
0.6330	4.7325	6.4501	32.0000
0.6340	4.7390	6.4453	32.0000
0.6350	4.7454	6.4406	32.0000
0.6360	4.7519	6.4358	32.0000
0.6370	4.7583	6.4311	32.0000
0.6380	4.7647	6.4263	32.0000
0.6390	4.7711	6.4215	32.0000
0.6400	4.7776	6.4168	32.0000
0.6410	4.7840	6.4120	32.0000
0.6420	4.7904	6.4072	32.0000
0.6430	4.7968	6.4024	32.0000
0.6440	4.8032	6.3976	32.0000
0.6450	4.8096	6.3928	32.0000
0.6460	4.8160	6.3880	32.0000
0.6470	4.8224	6.3832	32.0000
0.6480	4.8287	6.3783	32.0000
0.6490	4.8351	6.3735	32.0000
0.6500	4.8415	6.3687	32.0000
0.6510	4.8479	6.3638	32.0000
0.6520	4.8542	6.3590	32.0000
0.6530	4.8606	6.3541	32.0000
0.6540	4.8669	6.3493	32.0000
0.6550	4.8733	6.3444	32.0000
0.6560	4.8796	6.3395	32.0000
0.6570	4.8860	6.3346	32.0000
0.6580	4.8923	6.3297	32.0000
0.6590	4.8986	6.3248	32.0000
0.6600	4.9049	6.3199	32.0000
0.6610	4.9113	6.3150	32.0000
0.6620	4.9176	6.3101	32.0000
0.6630	4.9239	6.3052	32.0000
0.6640	4.9302	6.3003	32.0000
0.6650	4.9365	6.2953	32.0000
0.6660	4.9428	6.2904	32.0000
0.6670	4.9491	6.2854	32.0000
0.6680	4.9553	6.2805	32.0000
0.6690	4.9616	6.2755	32.0000
0.6700	4.9679	6.2706	32.0000
0.6710	4.9742	6.2656	32.0000
0.6720	4.9804	6.2606	32.0000
0.6730	4.9867	6.2556	32.0000
0.6740	4.9929	6.2507	32.0000
0.6750	4.9992	6.2457	32.0000
0.6760	5.0054	6.2407	32.0000
0.6770	5.0117	6.2356	32.0000
0.6780	5.0179	6.2306	32.0000
0.6790	5.0241	6.2256	32.0000
0.6800	5.0303	6.2206	32.0000
0.6810	5.0366	6.2155	32.0000
0.6820	5.0428	6.2105	32.0000
0.6830	5.0490	6.2055	32.0000
0.6840	5.0552	6.2004	32.0000
0.6850	5.0614	6.1954	32.0000
0.6860	5.0676	6.1903	32.0000
0.6870	5.0738	6.1852	32.0000
0.6880	5.0799	6.1801	32.0000
0.6890	5.0861	6.1751	32.0000
0.6900	5.0923	6.1700	32.0000
0.6910	5.0985	6.1649	32.0000
0.6920	5.1046	6.1598	32.0000
0.6930	5.1108	6.1547	32.0000
0.6940	5.1169	6.1495	32.0000
0.6950	5.1231	6.1444	32.0000
0.6960	5.1292	6.1393	32.0000
0.6970	5.1354	6.1342	32.0000
0.6980	5.1415	6.1290	32.0000
0.6990	5.1476	6.1239	32.0000
0.7000	5.1537	6.1187	32.0000
0.7010	5.1599	6.1136	32.0000
0.7020	5.1660	6.1084	32.0000
0.7030	5.1721	6.1032	32.0000
0.7040	5.1782	6.0981	32.0000
0.7050	5.1843	6.0929	32.0000
0.7060	5.1904	6.0877	32.0000
0.7070	5.1964	6.0825	32.0000
0.7080	5.2025	6.0773	32.0000
0.7090	5.2086	6.0721	32.0000
0.7100	5.2147	6.0669	32.0000
0.7110	5.2207	6.0617	32.0000
0.7120	5.2268	6.0565	32.0000
0.7130	5.2328	6.0512	32.0000
0.7140	5.2389	6.0460	32.0000
0.7150	5.2449	6.0407	32.0000
0.7160	5.2510	6.0355	32.0000
0.7170	5.2570	6.0302	32.0000
0.7180	5.2630	6.0250	32.0000
0.7190	5.2691	6.0197	32.0000
0.7200	5.2751	6.0144	32.0000
0.7210	5.2811	6.0092	32.0000
0.7220	5.2871	6.0039	32.0000
0.7230	5.2931	5.9986	32.0000
0.7240	5.2991	5.9933	32.0000
0.7250	5.3051	5.9880	32.0000
0.7260	5.3111	5.9827	32.0000
0.7270	5.3170	5.9774	32.0000
0.7280	5.3230	5.9721	32.0000
0.7290	5.3290	5.9667	32.0000
0.7300	5.3350	5.9614	32.0000
0.7310	5.3409	5.9561	32.0000
0.7320	5.3469	5.9507	32.0000
0.7330	5.3528	5.9454	32.0000
0.7340	5.3588	5.9400	32.0000
0.7350	5.3647	5.9346	32.0000
0.7360	5.3706	5.9293	32.0000
0.7370	5.3766	5.9239	32.0000
0.7380	5.3825	5.9185	32.0000
0.7390	5.3884	5.9131	32.0000
0.7400	5.3943	5.9077	32.0000
0.7410	5.4002	5.9024	32.0000
0.7420	5.4061	5.8969	32.0000
0.7430	5.4120	5.8915	32.0000
0.7440	5.4179	5.8861	32.0000
0.7450	5.4238	5.8807	32.0000
0.7460	5.4297	5.8753	32.0000
0.7470	5.4355	5.8698	32.0000
0.7480	5.4414	5.8644	32.0000
0.7490	5.4473	5.8590	32.0000
0.7500	5.4531	5.8535	32.0000
0.7510	5.4590	5.8481	32.0000
0.7520	5.4648	5.8426	32.0000
0.7530	5.4706	5.8371	32.0000
0.7540	5.4765	5.8317	32.0000
0.7550	5.4823	5.8262	32.0000
0.7560	5.4881	5.8207	32.0000
0.7570	5.4940	5.8152	32.0000
0.7580	5.4998	5.8097	32.0000
0.7590	5.5056	5.8042	32.0000
0.7600	5.5114	5.7987	32.0000
0.7610	5.5172	5.7932	32.0000
0.7620	5.5230	5.7877	32.0000
0.7630	5.5287	5.7821	32.0000
0.7640	5.5345	5.7766	32.0000
0.7650	5.5403	5.7711	32.0000
0.7660	5.5461	5.7655	32.0000
0.7670	5.5518	5.7600	32.0000
0.7680	5.5576	5.7544	32.0000
0.7690	5.5633	5.7489	32.0000
0.7700	5.5691	5.7433	32.0000
0.7710	5.5748	5.7377	32.0000
0.7720	5.5806	5.7321	32.0000
0.7730	5.5863	5.7266	32.0000
0.7740	5.5920	5.7210	32.0000
0.7750	5.5977	5.7154	32.0000
0.7760	5.6034	5.7098	32.0000
0.7770	5.6091	5.7042	32.0000
0.7780	5.6149	5.6985	32.0000
0.7790	5.6205	5.6929	32.0000
0.7800	5.6262	5.6873	32.0000
0.7810	5.6319	5.6817	32.0000
0.7820	5.6376	5.6760	32.0000
0.7830	5.6433	5.6704	32.0000
0.7840	5.6489	5.6648	32.0000
0.7850	5.6546	5.6591	32.0000
0.7860	5.6603	5.6534	32.0000
0.7870	5.6659	5.6478	32.0000
0.7880	5.6716	5.6421	32.0000
0.7890	5.6772	5.6364	32.0000
0.7900	5.6828	5.6308	32.0000
0.7910	5.6885	5.6251	32.0000
0.7920	5.6941	5.6194	32.0000
0.7930	5.6997	5.6137	32.0000
0.7940	5.7053	5.6080	32.0000
0.7950	5.7109	5.6023	32.0000
0.7960	5.7165	5.5966	32.0000
0.7970	5.7221	5.5908	32.0000
0.7980	5.7277	5.5851	32.0000
0.7990	5.7333	5.5794	32.0000
0.8000	5.7388	5.5737	32.0000
0.8010	5.7444	5.5679	32.0000
0.8020	5.7500	5.5622	32.0000
0.8030	5.7555	5.5564	32.0000
0.8040	5.7611	5.5507	32.0000
0.8050	5.7666	5.5449	32.0000
0.8060	5.7722	5.5391	32.0000
0.8070	5.7777	5.5333	32.0000
0.8080	5.7833	5.5276	32.0000
0.8090	5.7888	5.5218	32.0000
0.8100	5.7943	5.5160	32.0000
0.8110	5.7998	5.5102	32.0000
0.8120	5.8053	5.5044	32.0000
0.8130	5.8108	5.4986	32.0000
0.8140	5.8163	5.4928	32.0000
0.8150	5.8218	5.4869	32.0000
0.8160	5.8273	5.4811	32.0000
0.8170	5.8328	5.4753	32.0000
0.8180	5.8382	5.4695	32.0000
0.8190	5.8437	5.4636	32.0000
0.8200	5.8492	5.4578	32.0000
0.8210	5.8546	5.4519	32.0000
0.8220	5.8601	5.4461	32.0000
0.8230	5.8655	5.4402	32.0000
0.8240	5.8710	5.4343	32.0000
0.8250	5.8764	5.4285	32.0000
0.8260	5.8818	5.4226	32.0000
0.8270	5.8872	5.4167	32.0000
0.8280	5.8926	5.4108	32.0000
0.8290	5.8980	5.4049	32.0000
0.8300	5.9035	5.3990	32.0000
0.8310	5.9088	5.3931	32.0000
0.8320	5.9142	5.3872	32.0000
0.8330	5.9196	5.3813	32.0000
0.8340	5.9250	5.3753	32.0000
0.8350	5.9304	5.3694	32.0000
0.8360	5.9357	5.3635	32.0000
0.8370	5.9411	5.3575	32.0000
0.8380	5.9465	5.3516	32.0000
0.8390	5.9518	5.3457	32.0000
0.8400	5.9571	5.3397	32.0000
0.8410	5.9625	5.3337	32.0000
0.8420	5.9678	5.3278	32.0000
0.8430	5.9731	5.3218	32.0000
0.8440	5.9785	5.3158	32.0000
0.8450	5.9838	5.3099	32.0000
0.8460	5.9891	5.3039	32.0000
0.8470	5.9944	5.2979	32.0000
0.8480	5.9997	5.2919	32.0000
0.8490	6.0050	5.2859	32.0000
0.8500	6.0102	5.2799	32.0000
0.8510	6.0155	5.2739	32.0000
0.8520	6.0208	5.2678	32.0000
0.8530	6.0261	5.2618	32.0000
0.8540	6.0313	5.2558	32.0000
0.8550	6.0366	5.2497	32.0000
0.8560	6.0418	5.2437	32.0000
0.8570	6.0471	5.2377	32.0000
0.8580	6.0523	5.2316	32.0000
0.8590	6.0575	5.2256	32.0000
0.8600	6.0627	5.2195	32.0000
0.8610	6.0680	5.2134	32.0000
0.8620	6.0732	5.2074	32.0000
0.8630	6.0784	5.2013	32.0000
0.8640	6.0836	5.1952	32.0000
0.8650	6.0888	5.1891	32.0000
0.8660	6.0939	5.1830	32.0000
0.8670	6.0991	5.1769	32.0000
0.8680	6.1043	5.1708	32.0000
0.8690	6.1095	5.1647	32.0000
0.8700	6.1146	5.1586	32.0000
0.8710	6.1198	5.1525	32.0000
0.8720	6.1249	5.1464	32.0000
0.8730	6.1301	5.1402	32.0000
0.8740	6.1352	5.1341	32.0000
0.8750	6.1403	5.1280	32.0000
0.8760	6.1455	5.1218	32.0000
0.8770	6.1506	5.1157	32.0000
0.8780	6.1557	5.1095	32.0000
0.8790	6.1608	5.1034	32.0000
0.8800	6.1659	5.0972	32.0000
0.8810	6.1710	5.0910	32.0000
0.8820	6.1761	5.0849	32.0000
0.8830	6.1812	5.0787	32.0000
0.8840	6.1863	5.0725	32.0000
0.8850	6.1913	5.0663	32.0000
0.8860	6.1964	5.0601	32.0000
0.8870	6.2014	5.0539	32.0000
0.8880	6.2065	5.0477	32.0000
0.8890	6.2115	5.0415	32.0000
0.8900	6.2166	5.0353	32.0000
0.8910	6.2216	5.0291	32.0000
0.8920	6.2266	5.0229	32.0000
0.8930	6.2317	5.0166	32.0000
0.8940	6.2367	5.0104	32.0000
0.8950	6.2417	5.0042	32.0000
0.8960	6.2467	4.9979	32.0000
0.8970	6.2517	4.9917	32.0000
0.8980	6.2567	4.9854	32.0000
0.8990	6.2616	4.9791	32.0000
0.9000	6.2666	4.9729	32.0000
0.9010	6.2716	4.9666	32.0000
0.9020	6.2765	4.9603	32.0000
0.9030	6.2815	4.9541	32.0000
0.9040	6.2865	4.9478	32.0000
0.9050	6.2914	4.9415	32.0000
0.9060	6.2963	4.9352	32.0000
0.9070	6.3013	4.9289	32.0000
0.9080	6.3062	4.9226	32.0000
0.9090	6.3111	4.9163	32.0000
0.9100	6.3160	4.9100	32.0000
0.9110	6.3209	4.9036	32.0000
0.9120	6.3258	4.8973	32.0000
0.9130	6.3307	4.8910	32.0000
0.9140	6.3356	4.8847	32.0000
0.9150	6.3405	4.8783	32.0000
0.9160	6.3454	4.8720	32.0000
0.9170	6.3502	4.8656	32.0000
0.9180	6.3551	4.8593	32.0000
0.9190	6.3600	4.8529	32.0000
0.9200	6.3648	4.8466	32.0000
0.9210	6.3697	4.8402	32.0000
0.9220	6.3745	4.8338	32.0000
0.9230	6.3793	4.8274	32.0000
0.9240	6.3841	4.8211	32.0000
0.9250	6.3890	4.8147	32.0000
0.9260	6.3938	4.8083	32.0000
0.9270	6.3986	4.8019	32.0000
0.9280	6.4034	4.7955	32.0000
0.9290	6.4082	4.7891	32.0000
0.9300	6.4130	4.7827	32.0000
0.9310	6.4177	4.7763	32.0000
0.9320	6.4225	4.7698	32.0000
0.9330	6.4273	4.7634	32.0000
0.9340	6.4320	4.7570	32.0000
0.9350	6.4368	4.7505	32.0000
0.9360	6.4415	4.7441	32.0000
0.9370	6.4463	4.7377	32.0000
0.9380	6.4510	4.7312	32.0000
0.9390	6.4557	4.7248	32.0000
0.9400	6.4605	4.7183	32.0000
0.9410	6.4652	4.7118	32.0000
0.9420	6.4699	4.7054	32.0000
0.9430	6.4746	4.6989	32.0000
0.9440	6.4793	4.6924	32.0000
0.9450	6.4840	4.6859	32.0000
0.9460	6.4887	4.6795	32.0000
0.9470	6.4933	4.6730	32.0000
0.9480	6.4980	4.6665	32.0000
0.9490	6.5027	4.6600	32.0000
0.9500	6.5073	4.6535	32.0000
0.9510	6.5120	4.6470	32.0000
0.9520	6.5166	4.6404	32.0000
0.9530	6.5213	4.6339	32.0000
0.9540	6.5259	4.6274	32.0000
0.9550	6.5305	4.6209	32.0000
0.9560	6.5351	4.6143	32.0000
0.9570	6.5397	4.6078	32.0000
0.9580	6.5443	4.6013	32.0000
0.9590	6.5489	4.5947	32.0000
0.9600	6.5535	4.5882	32.0000
0.9610	6.5581	4.5816	32.0000
0.9620	6.5627	4.5750	32.0000
0.9630	6.5673	4.5685	32.0000
0.9640	6.5718	4.5619	32.0000
0.9650	6.5764	4.5553	32.0000
0.9660	6.5809	4.5488	32.0000
0.9670	6.5855	4.5422	32.0000
0.9680	6.5900	4.5356	32.0000
0.9690	6.5946	4.5290	32.0000
0.9700	6.5991	4.5224	32.0000
0.9710	6.6036	4.5158	32.0000
0.9720	6.6081	4.5092	32.0000
0.9730	6.6126	4.5026	32.0000
0.9740	6.6171	4.4960	32.0000
0.9750	6.6216	4.4893	32.0000
0.9760	6.6261	4.4827	32.0000
0.9770	6.6306	4.4761	32.0000
0.9780	6.6351	4.4695	32.0000
0.9790	6.6395	4.4628	32.0000
0.9800	6.6440	4.4562	32.0000
0.9810	6.6484	4.4495	32.0000
0.9820	6.6529	4.4429	32.0000
0.9830	6.6573	4.4362	32.0000
0.9840	6.6618	4.4296	32.0000
0.9850	6.6662	4.4229	32.0000
0.9860	6.6706	4.4162	32.0000
0.9870	6.6750	4.4096	32.0000
0.9880	6.6794	4.4029	32.0000
0.9890	6.6838	4.3962	32.0000
0.9900	6.6882	4.3895	32.0000
0.9910	6.6926	4.3828	32.0000
0.9920	6.6970	4.3761	32.0000
0.9930	6.7013	4.3694	32.0000
0.9940	6.7057	4.3627	32.0000
0.9950	6.7101	4.3560	32.0000
0.9960	6.7144	4.3493	32.0000
0.9970	6.7188	4.3426	32.0000
0.9980	6.7231	4.3359	32.0000
0.9990	6.7274	4.3291	32.0000
1.0000	6.7318	4.3224	32.0000
1.0010	6.7361	4.3157	32.0000
1.0020	6.7404	4.3089	32.0000
1.0030	6.7447	4.3022	32.0000
1.0040	6.7490	4.2955	32.0000
1.0050	6.7533	4.2887	32.0000
1.0060	6.7576	4.2819	32.0000
1.0070	6.7619	4.2752	32.0000
1.0080	6.7661	4.2684	32.0000
1.0090	6.7704	4.2617	32.0000
1.0100	6.7747	4.2549	32.0000
1.0110	6.7789	4.2481	32.0000
1.0120	6.7832	4.2413	32.0000
1.0130	6.7874	4.2345	32.0000
1.0140	6.7916	4.2278	32.0000
1.0150	6.7958	4.2210	32.0000
1.0160	6.8001	4.2142	32.0000
1.0170	6.8043	4.2074	32.0000
1.0180	6.8085	4.2006	32.0000
1.0190	6.8127	4.1937	32.0000
1.0200	6.8169	4.1869	32.0000
1.0210	6.8210	4.1801	32.0000
1.0220	6.8252	4.1733	32.0000
1.0230	6.8294	4.1665	32.0000
1.0240	6.8336	4.1596	32.0000
1.0250	6.8377	4.1528	32.0000
1.0260	6.8419	4.1460	32.0000
1.0270	6.8460	4.1391	32.0000
1.0280	6.8501	4.1323	32.0000
1.0290	6.8543	4.1254	32.0000
1.0300	6.8584	4.1186	32.0000
1.0310	6.8625	4.1117	32.0000
1.0320	6.8666	4.1048	32.0000