# Time	Position	Velocity	Total Energy
0.0000	0.0000	1.0000	0.5000
0.0100	0.0100	1.0000	0.5000
0.0200	0.0200	1.0000	0.5002
0.0300	0.0300	0.9999	0.5003
0.0400	0.0400	0.9997	0.5005
0.0500	0.0500	0.9994	0.5006
0.0600	0.0600	0.9990	0.5008
0.0700	0.0700	0.9985	0.5009
0.0800	0.0800	0.9979	0.5011
0.0900	0.0899	0.9972	0.5012
0.1000	0.0999	0.9964	0.5014
0.1100	0.1099	0.9955	0.5015
0.1200	0.1198	0.9945	0.5017
0.1300	0.1297	0.9934	0.5018
0.1400	0.1397	0.9922	0.5020
0.1500	0.1496	0.9909	0.5021
0.1600	0.1595	0.9895	0.5023
0.1700	0.1694	0.9880	0.5024
0.1800	0.1793	0.9864	0.5026
0.1900	0.1891	0.9847	0.5027
0.2000	0.1989	0.9829	0.5029
0.2100	0.2088	0.9811	0.5030
0.2200	0.2186	0.9791	0.5032
0.2300	0.2283	0.9770	0.5033
0.2400	0.2381	0.9748	0.5035
0.2500	0.2478	0.9725	0.5036
0.2600	0.2576	0.9701	0.5038
0.2700	0.2672	0.9677	0.5039
0.2800	0.2769	0.9651	0.5041
0.2900	0.2865	0.9624	0.5042
0.3000	0.2962	0.9597	0.5043
0.3100	0.3057	0.9568	0.5045
0.3200	0.3153	0.9539	0.5046
0.3300	0.3248	0.9508	0.5048
0.3400	0.3343	0.9477	0.5049
0.3500	0.3438	0.9444	0.5051
0.3600	0.3532	0.9411	0.5052
0.3700	0.3626	0.9377	0.5053
0.3800	0.3720	0.9341	0.5055
0.3900	0.3813	0.9305	0.5056
0.4000	0.3906	0.9268	0.5058
0.4100	0.3998	0.9230	0.5059
0.4200	0.4090	0.9191	0.5060
0.4300	0.4182	0.9151	0.5062
0.4400	0.4273	0.9111	0.5063
0.4500	0.4364	0.9069	0.5064
0.4600	0.4455	0.9026	0.5066
0.4700	0.4545	0.8983	0.5067
0.4800	0.4634	0.8938	0.5069
0.4900	0.4723	0.8893	0.5070
0.5000	0.4812	0.8847	0.5071
0.5100	0.4900	0.8800	0.5072
0.5200	0.4988	0.8752	0.5074
0.5300	0.5075	0.8703	0.5075
0.5400	0.5162	0.8653	0.5076
0.5500	0.5248	0.8603	0.5078
0.5600	0.5334	0.8551	0.5079
0.5700	0.5419	0.8499	0.5080
0.5800	0.5504	0.8446	0.5082
0.5900	0.5588	0.8392	0.5083
0.6000	0.5672	0.8337	0.5084
0.6100	0.5755	0.8282	0.5085
0.6200	0.5838	0.8225	0.5087
0.6300	0.5920	0.8168	0.5088
0.6400	0.6001	0.8110	0.5089
0.6500	0.6082	0.8051	0.5090
0.6600	0.6162	0.7991	0.5091
0.6700	0.6242	0.7931	0.5093
0.6800	0.6321	0.7869	0.5094
0.6900	0.6399	0.7807	0.5095
0.7000	0.6477	0.7744	0.5096
0.7100	0.6554	0.7681	0.5097
0.7200	0.6630	0.7616	0.5098
0.7300	0.6706	0.7551	0.5100
0.7400	0.6781	0.7485	0.5101
0.7500	0.6856	0.7418	0.5102
0.7600	0.6930	0.7351	0.5103
0.7700	0.7003	0.7283	0.5104
0.7800	0.7075	0.7214	0.5105
0.7900	0.7147	0.7144	0.5106
0.8000	0.7218	0.7074	0.5107
0.8100	0.7289	0.7003	0.5108
0.8200	0.7358	0.6931	0.5109
0.8300	0.7427	0.6859	0.5110
0.8400	0.7496	0.6786	0.5111
0.8500	0.7563	0.6712	0.5112
0.8600	0.7630	0.6637	0.5113
0.8700	0.7696	0.6562	0.5114
0.8800	0.7761	0.6487	0.5115
0.8900	0.7825	0.6410	0.5116
0.9000	0.7889	0.6333	0.5117
0.9100	0.7952	0.6255	0.5118
0.9200	0.8014	0.6177	0.5119
0.9300	0.8076	0.6098	0.5120
0.9400	0.8136	0.6018	0.5121
0.9500	0.8196	0.5938	0.5122
0.9600	0.8255	0.5858	0.5123
0.9700	0.8313	0.5776	0.5124
0.9800	0.8371	0.5694	0.5125
0.9900	0.8427	0.5612	0.5125
1.0000	0.8483	0.5529	0.5126
1.0100	0.8538	0.5445	0.5127
1.0200	0.8592	0.5361	0.5128
1.0300	0.8645	0.5276	0.5129
1.0400	0.8697	0.5191	0.5129
1.0500	0.8749	0.5105	0.5130
1.0600	0.8799	0.5019	0.5131
1.0700	0.8849	0.4932	0.5132
1.0800	0.8898	0.4845	0.5132
1.0900	0.8946	0.4757	0.5133
1.1000	0.8993	0.4669	0.5134
1.1100	0.9039	0.4581	0.5135
1.1200	0.9085	0.4491	0.5135
1.1300	0.9129	0.4402	0.5136
1.1400	0.9173	0.4312	0.5137
1.1500	0.9215	0.4221	0.5137
1.1600	0.9257	0.4131	0.5138
1.1700	0.9298	0.4039	0.5138
1.1800	0.9338	0.3948	0.5139
1.1900	0.9377	0.3856	0.5140
1.2000	0.9415	0.3763	0.5140
1.2100	0.9452	0.3670	0.5141
1.2200	0.9488	0.3577	0.5141
1.2300	0.9524	0.3483	0.5142
1.2400	0.9558	0.3390	0.5142
1.2500	0.9592	0.3295	0.5143
1.2600	0.9624	0.3201	0.5143
1.2700	0.9656	0.3106	0.5144
1.2800	0.9686	0.3011	0.5144
1.2900	0.9716	0.2915	0.5145
1.3000	0.9744	0.2819	0.5145
1.3100	0.9772	0.2723	0.5146
1.3200	0.9799	0.2627	0.5146
1.3300	0.9825	0.2530	0.5146
1.3400	0.9850	0.2433	0.5147
1.3500	0.9873	0.2336	0.5147
1.3600	0.9896	0.2239	0.5147
1.3700	0.9918	0.2141	0.5148
1.3800	0.9939	0.2044	0.5148
1.3900	0.9959	0.1946	0.5148
1.4000	0.9978	0.1847	0.5149
1.4100	0.9996	0.1749	0.5149
1.4200	1.0013	0.1650	0.5149
1.4300	1.0029	0.1552	0.5149
1.4400	1.0044	0.1453	0.5150
1.4500	1.0058	0.1354	0.5150
1.4600	1.0071	0.1255	0.5150
1.4700	1.0083	0.1155	0.5150
1.4800	1.0094	0.1056	0.5150
1.4900	1.0104	0.0957	0.5151
1.5000	1.0113	0.0857	0.5151
1.5100	1.0121	0.0757	0.5151
1.5200	1.0128	0.0658	0.5151
1.5300	1.0135	0.0558	0.5151
1.5400	1.0140	0.0458	0.5151
1.5500	1.0144	0.0358	0.5151
1.5600	1.0147	0.0258	0.5151
1.5700	1.0149	0.0158	0.5151
1.5800	1.0150	0.0058	0.5151
1.5900	1.0150	-0.0042	0.5151
1.6000	1.0149	-0.0142	0.5151
1.6100	1.0147	-0.0242	0.5151
1.6200	1.0144	-0.0342	0.5151
1.6300	1.0140	-0.0442	0.5151
1.6400	1.0135	-0.0542	0.5151
1.6500	1.0129	-0.0642	0.5151
1.6600	1.0123	-0.0741	0.5151
1.6700	1.0115	-0.0841	0.5151
1.6800	1.0106	-0.0941	0.5151
1.6900	1.0096	-0.1040	0.5150
1.7000	1.0085	-0.1139	0.5150
1.7100	1.0073	-0.1239	0.5150
1.7200	1.0060	-0.1338	0.5150
1.7300	1.0046	-0.1437	0.5150
1.7400	1.0031	-0.1536	0.5149
1.7500	1.0016	-0.1635	0.5149
1.7600	0.9999	-0.1733	0.5149
1.7700	0.9981	-0.1832	0.5149
1.7800	0.9962	-0.1930	0.5148
1.7900	0.9942	-0.2028	0.5148
1.8000	0.9922	-0.2126	0.5148
1.8100	0.9900	-0.2223	0.5147
1.8200	0.9877	-0.2321	0.5147
1.8300	0.9853	-0.2418	0.5147
1.8400	0.9829	-0.2515	0.5146
1.8500	0.9803	-0.2611	0.5146
1.8600	0.9777	-0.2708	0.5146
1.8700	0.9749	-0.2804	0.5145
1.8800	0.9720	-0.2900	0.5145
1.8900	0.9691	-0.2995	0.5144
1.9000	0.9661	-0.3091	0.5144
1.9100	0.9629	-0.3185	0.5143
1.9200	0.9597	-0.3280	0.5143
1.9300	0.9564	-0.3374	0.5142
1.9400	0.9529	-0.3468	0.5142
1.9500	0.9494	-0.3562	0.5141
1.9600	0.9458	-0.3655	0.5141
1.9700	0.9421	-0.3748	0.5140
1.9800	0.9383	-0.3841	0.5140
1.9900	0.9344	-0.3933	0.5139
2.0000	0.9304	-0.4025	0.5139
2.0100	0.9264	-0.4116	0.5138
2.0200	0.9222	-0.4207	0.5137
2.0300	0.9180	-0.4297	0.5137
2.0400	0.9136	-0.4387	0.5136
2.0500	0.9092	-0.4477	0.5135
2.0600	0.9047	-0.4566	0.5135
2.0700	0.9001	-0.4655	0.5134
2.0800	0.8954	-0.4743	0.5133
2.0900	0.8906	-0.4831	0.5133
2.1000	0.8857	-0.4918	0.5132
2.1100	0.8807	-0.5005	0.5131
2.1200	0.8757	-0.5091	0.5130
2.1300	0.8706	-0.5177	0.5130
2.1400	0.8653	-0.5263	0.5129
2.1500	0.8600	-0.5347	0.5128
2.1600	0.8546	-0.5432	0.5127
2.1700	0.8492	-0.5515	0.5126
2.1800	0.8436	-0.5598	0.5126
2.1900	0.8380	-0.5681	0.5125
2.2000	0.8322	-0.5763	0.5124
2.2100	0.8264	-0.5844	0.5123
2.2200	0.8206	-0.5925	0.5122
2.2300	0.8146	-0.6006	0.5121
2.2400	0.8085	-0.6085	0.5120
2.2500	0.8024	-0.6164	0.5119
2.2600	0.7962	-0.6243	0.5118
2.2700	0.7899	-0.6321	0.5117
2.2800	0.7836	-0.6398	0.5116
2.2900	0.7771	-0.6474	0.5116
2.3000	0.7706	-0.6550	0.5115
2.3100	0.7640	-0.6625	0.5114
2.3200	0.7574	-0.6700	0.5113
2.3300	0.7506	-0.6774	0.5112
2.3400	0.7438	-0.6847	0.5111
2.3500	0.7370	-0.6920	0.5109
2.3600	0.7300	-0.6991	0.5108
2.3700	0.7230	-0.7063	0.5107
2.3800	0.7159	-0.7133	0.5106
2.3900	0.7087	-0.7203	0.5105
2.4000	0.7015	-0.7272	0.5104
2.4100	0.6942	-0.7340	0.5103
2.4200	0.6868	-0.7408	0.5102
2.4300	0.6793	-0.7474	0.5101
2.4400	0.6718	-0.7540	0.5100
2.4500	0.6643	-0.7606	0.5099
2.4600	0.6566	-0.7670	0.5097
2.4700	0.6489	-0.7734	0.5096
2.4800	0.6412	-0.7797	0.5095
2.4900	0.6333	-0.7859	0.5094
2.5000	0.6254	-0.7921	0.5093
2.5100	0.6175	-0.7981	0.5092
2.5200	0.6095	-0.8041	0.5090
2.5300	0.6014	-0.8100	0.5089
2.5400	0.5933	-0.8158	0.5088
2.5500	0.5851	-0.8216	0.5087
2.5600	0.5768	-0.8272	0.5085
2.5700	0.5685	-0.8328	0.5084
2.5800	0.5602	-0.8383	0.5083
2.5900	0.5518	-0.8437	0.5082
2.6000	0.5433	-0.8491	0.5080
2.6100	0.5348	-0.8543	0.5079
2.6200	0.5262	-0.8595	0.5078
2.6300	0.5176	-0.8645	0.5077
2.6400	0.5089	-0.8695	0.5075
2.6500	0.5002	-0.8744	0.5074
2.6600	0.4915	-0.8792	0.5073
2.6700	0.4826	-0.8839	0.5071
2.6800	0.4738	-0.8886	0.5070
2.6900	0.4649	-0.8931	0.5069
2.7000	0.4559	-0.8976	0.5067
2.7100	0.4469	-0.9019	0.5066
2.7200	0.4379	-0.9062	0.5065
2.7300	0.4288	-0.9104	0.5063
2.7400	0.4197	-0.9145	0.5062
2.7500	0.4105	-0.9185	0.5060
2.7600	0.4013	-0.9224	0.5059
2.7700	0.3921	-0.9262	0.5058
2.7800	0.3828	-0.9299	0.5056
2.7900	0.3735	-0.9335	0.5055
2.8000	0.3641	-0.9371	0.5054
2.8100	0.3547	-0.9405	0.5052
2.8200	0.3453	-0.9439	0.5051
2.8300	0.3358	-0.9471	0.5049
2.8400	0.3264	-0.9503	0.5048
2.8500	0.3168	-0.9534	0.5046
2.8600	0.3073	-0.9563	0.5045
2.8700	0.2977	-0.9592	0.5044
2.8800	0.2881	-0.9620	0.5042
2.8900	0.2785	-0.9647	0.5041
2.9000	0.2688	-0.9673	0.5039
2.9100	0.2591	-0.9697	0.5038
2.9200	0.2494	-0.9721	0.5036
2.9300	0.2397	-0.9744	0.5035
2.9400	0.2299	-0.9766	0.5033
2.9500	0.2201	-0.9787	0.5032
2.9600	0.2104	-0.9807	0.5030
2.9700	0.2005	-0.9826	0.5029
2.9800	0.1907	-0.9844	0.5027
2.9900	0.1808	-0.9862	0.5026
3.0000	0.1710	-0.9878	0.5025
3.0100	0.1611	-0.9893	0.5023
3.0200	0.1512	-0.9907	0.5022
3.0300	0.1413	-0.9920	0.5020
3.0400	0.1314	-0.9932	0.5019
3.0500	0.1214	-0.9943	0.5017
3.0600	0.1115	-0.9953	0.5016
3.0700	0.1015	-0.9962	0.5014
3.0800	0.0915	-0.9971	0.5013
3.0900	0.0816	-0.9978	0.5011
3.1000	0.0716	-0.9984	0.5010
3.1100	0.0616	-0.9989	0.5008
3.1200	0.0516	-0.9993	0.5007
3.1300	0.0416	-0.9996	0.5005
3.1400	0.0316	-0.9999	0.5004
3.1500	0.0216	-1.0000	0.5002
3.1600	0.0116	-1.0000	0.5001
3.1700	0.0016	-0.9999	0.4999
3.1800	-0.0084	-0.9997	0.4998
3.1900	-0.0184	-0.9994	0.4996
3.2000	-0.0284	-0.9991	0.4995
3.2100	-0.0384	-0.9986	0.4993
3.2200	-0.0483	-0.9980	0.4992
3.2300	-0.0583	-0.9973	0.4990
3.2400	-0.0683	-0.9965	0.4989
3.2500	-0.0782	-0.9956	0.4987
3.2600	-0.0882	-0.9947	0.4986
3.2700	-0.0981	-0.9936	0.4984
3.2800	-0.1081	-0.9924	0.4983
3.2900	-0.1180	-0.9911	0.4981
3.3000	-0.1279	-0.9897	0.4980
3.3100	-0.1378	-0.9883	0.4978
3.3200	-0.1477	-0.9867	0.4977
3.3300	-0.1575	-0.9850	0.4975
3.3400	-0.1674	-0.9832	0.4974
3.3500	-0.1772	-0.9814	0.4972
3.3600	-0.1870	-0.9794	0.4971
3.3700	-0.1968	-0.9773	0.4969
3.3800	-0.2065	-0.9751	0.4968
3.3900	-0.2163	-0.9729	0.4966
3.4000	-0.2260	-0.9705	0.4965
3.4100	-0.2357	-0.9681	0.4963
3.4200	-0.2453	-0.9655	0.4962
3.4300	-0.2550	-0.9629	0.4961
3.4400	-0.2646	-0.9601	0.4959
3.4500	-0.2742	-0.9573	0.4958
3.4600	-0.2837	-0.9543	0.4956
3.4700	-0.2933	-0.9513	0.4955
3.4800	-0.3028	-0.9482	0.4953
3.4900	-0.3122	-0.9449	0.4952
3.5000	-0.3217	-0.9416	0.4950
3.5100	-0.3311	-0.9382	0.4949
3.5200	-0.3404	-0.9347	0.4948
3.5300	-0.3498	-0.9311	0.4946
3.5400	-0.3591	-0.9274	0.4945
3.5500	-0.3683	-0.9236	0.4943
3.5600	-0.3775	-0.9197	0.4942
3.5700	-0.3867	-0.9158	0.4941
3.5800	-0.3958	-0.9117	0.4939
3.5900	-0.4049	-0.9075	0.4938
3.6000	-0.4140	-0.9033	0.4937
3.6100	-0.4230	-0.8990	0.4935
3.6200	-0.4320	-0.8945	0.4934
3.6300	-0.4409	-0.8900	0.4933
3.6400	-0.4498	-0.8854	0.4931
3.6500	-0.4586	-0.8807	0.4930
3.6600	-0.4674	-0.8759	0.4929
3.6700	-0.4761	-0.8711	0.4927
3.6800	-0.4848	-0.8661	0.4926
3.6900	-0.4934	-0.8611	0.4925
3.7000	-0.5020	-0.8559	0.4923
3.7100	-0.5106	-0.8507	0.4922
3.7200	-0.5190	-0.8454	0.4921
3.7300	-0.5275	-0.8401	0.4920
3.7400	-0.5358	-0.8346	0.4918
3.7500	-0.5442	-0.8290	0.4917
3.7600	-0.5524	-0.8234	0.4916
3.7700	-0.5606	-0.8177	0.4915
3.7800	-0.5688	-0.8119	0.4913
3.7900	-0.5769	-0.8060	0.4912
3.8000	-0.5849	-0.8001	0.4911
3.8100	-0.5929	-0.7940	0.4910
3.8200	-0.6008	-0.7879	0.4909
3.8300	-0.6086	-0.7817	0.4907
3.8400	-0.6164	-0.7754	0.4906
3.8500	-0.6241	-0.7691	0.4905
3.8600	-0.6318	-0.7626	0.4904
3.8700	-0.6394	-0.7561	0.4903
3.8800	-0.6469	-0.7495	0.4902
3.8900	-0.6544	-0.7429	0.4900
3.9000	-0.6618	-0.7362	0.4899
3.9100	-0.6691	-0.7294	0.4898
3.9200	-0.6764	-0.7225	0.4897
3.9300	-0.6835	-0.7155	0.4896
3.9400	-0.6907	-0.7085	0.4895
3.9500	-0.6977	-0.7014	0.4894
3.9600	-0.7047	-0.6943	0.4893
3.9700	-0.7116	-0.6870	0.4892
3.9800	-0.7184	-0.6797	0.4891
3.9900	-0.7252	-0.6724	0.4890
4.0000	-0.7319	-0.6649	0.4889
4.0100	-0.7385	-0.6574	0.4888
4.0200	-0.7450	-0.6498	0.4887
4.0300	-0.7515	-0.6422	0.4886
4.0400	-0.7579	-0.6345	0.4885
4.0500	-0.7642	-0.6268	0.4884
4.0600	-0.7704	-0.6189	0.4883
4.0700	-0.7766	-0.6110	0.4882
4.0800	-0.7826	-0.6031	0.4881
4.0900	-0.7886	-0.5951	0.4880
4.1000	-0.7945	-0.5870	0.4879
4.1100	-0.8004	-0.5789	0.4878
4.1200	-0.8061	-0.5707	0.4878
4.1300	-0.8118	-0.5625	0.4877
4.1400	-0.8174	-0.5542	0.4876
4.1500	-0.8229	-0.5458	0.4875
4.1600	-0.8283	-0.5374	0.4874
4.1700	-0.8336	-0.5290	0.4873
4.1800	-0.8388	-0.5205	0.4873
4.1900	-0.8440	-0.5119	0.4872
4.2000	-0.8491	-0.5033	0.4871
4.2100	-0.8541	-0.4946	0.4870
4.2200	-0.8590	-0.4859	0.4870
4.2300	-0.8638	-0.4771	0.4869
4.2400	-0.8685	-0.4683	0.4868
4.2500	-0.8732	-0.4595	0.4868
4.2600	-0.8777	-0.4506	0.4867
4.2700	-0.8822	-0.4416	0.4866
4.2800	-0.8865	-0.4326	0.4866
4.2900	-0.8908	-0.4236	0.4865
4.3000	-0.8950	-0.4145	0.4864
4.3100	-0.8991	-0.4054	0.4864
4.3200	-0.9031	-0.3962	0.4863
4.3300	-0.9070	-0.3870	0.4862
4.3400	-0.9109	-0.3778	0.4862
4.3500	-0.9146	-0.3685	0.4861
4.3600	-0.9182	-0.3592	0.4861
4.3700	-0.9218	-0.3498	0.4860
4.3800	-0.9252	-0.3404	0.4860
4.3900	-0.9286	-0.3310	0.4859
4.4000	-0.9318	-0.3216	0.4859
4.4100	-0.9350	-0.3121	0.4858
4.4200	-0.9381	-0.3026	0.4858
4.4300	-0.9411	-0.2930	0.4857
4.4400	-0.9439	-0.2834	0.4857
4.4500	-0.9467	-0.2738	0.4856
4.4600	-0.9494	-0.2642	0.4856
4.4700	-0.9520	-0.2545	0.4856
4.4800	-0.9545	-0.2449	0.4855
4.4900	-0.9569	-0.2352	0.4855
4.5000	-0.9592	-0.2254	0.4855
4.5100	-0.9614	-0.2157	0.4854
4.5200	-0.9635	-0.2059	0.4854
4.5300	-0.9655	-0.1961	0.4854
4.5400	-0.9675	-0.1863	0.4853
4.5500	-0.9693	-0.1765	0.4853
4.5600	-0.9710	-0.1666	0.4853
4.5700	-0.9726	-0.1567	0.4853
4.5800	-0.9741	-0.1468	0.4852
4.5900	-0.9755	-0.1369	0.4852
4.6000	-0.9769	-0.1270	0.4852
4.6100	-0.9781	-0.1171	0.4852
4.6200	-0.9792	-0.1072	0.4852
4.6300	-0.9802	-0.0972	0.4851
4.6400	-0.9811	-0.0873	0.4851
4.6500	-0.9820	-0.0773	0.4851
4.6600	-0.9827	-0.0673	0.4851
4.6700	-0.9833	-0.0573	0.4851
4.6800	-0.9838	-0.0474	0.4851
4.6900	-0.9843	-0.0374	0.4851
4.7000	-0.9846	-0.0274	0.4851
4.7100	-0.9848	-0.0174	0.4851
4.7200	-0.9849	-0.0074	0.4851
4.7300	-0.9850	0.0026	0.4851
4.7400	-0.9849	0.0126	0.4851
4.7500	-0.9847	0.0226	0.4851
4.7600	-0.9844	0.0326	0.4851
4.7700	-0.9840	0.0426	0.4851
4.7800	-0.9836	0.0526	0.4851
4.7900	-0.9830	0.0626	0.4851
4.8000	-0.9823	0.0726	0.4851
4.8100	-0.9815	0.0825	0.4851
4.8200	-0.9807	0.0925	0.4851
4.8300	-0.9797	0.1024	0.4851
4.8400	-0.9786	0.1124	0.4852
4.8500	-0.9774	0.1223	0.4852
4.8600	-0.9762	0.1322	0.4852
4.8700	-0.9748	0.1421	0.4852
4.8800	-0.9733	0.1520	0.4852
4.8900	-0.9718	0.1619	0.4853
4.9000	-0.9701	0.1718	0.4853
4.9100	-0.9683	0.1816	0.4853
4.9200	-0.9665	0.1914	0.4853
4.9300	-0.9645	0.2012	0.4854
4.9400	-0.9624	0.2110	0.4854
4.9500	-0.9603	0.2208	0.4854
4.9600	-0.9580	0.2305	0.4855
4.9700	-0.9557	0.2402	0.4855
4.9800	-0.9532	0.2499	0.4855
4.9900	-0.9507	0.2596	0.4856
5.0000	-0.9480	0.2693	0.4856
5.0100	-0.9453	0.2789	0.4857
5.0200	-0.9424	0.2885	0.4857
5.0300	-0.9395	0.2980	0.4858
5.0400	-0.9365	0.3076	0.4858
5.0500	-0.9334	0.3171	0.4858
5.0600	-0.9301	0.3265	0.4859
5.0700	-0.9268	0.3360	0.4859
5.0800	-0.9234	0.3454	0.4860
5.0900	-0.9199	0.3547	0.4860
5.1000	-0.9163	0.3641	0.4861
5.1100	-0.9126	0.3734	0.4862
5.1200	-0.9089	0.3826	0.4862
5.1300	-0.9050	0.3918	0.4863
5.1400	-0.9010	0.4010	0.4863
5.1500	-0.8970	0.4102	0.4864
5.1600	-0.8928	0.4193	0.4865
5.1700	-0.8886	0.4283	0.4865
5.1800	-0.8843	0.4373	0.4866
5.1900	-0.8798	0.4463	0.4867
5.2000	-0.8753	0.4552	0.4867
5.2100	-0.8707	0.4641	0.4868
5.2200	-0.8661	0.4729	0.4869
5.2300	-0.8613	0.4817	0.4869
5.2400	-0.8564	0.4905	0.4870
5.2500	-0.8515	0.4992	0.4871
5.2600	-0.8464	0.5078	0.4872
5.2700	-0.8413	0.5164	0.4872
5.2800	-0.8361	0.5249	0.4873
5.2900	-0.8308	0.5334	0.4874
5.3000	-0.8254	0.5418	0.4875
5.3100	-0.8200	0.5502	0.4876
5.3200	-0.8144	0.5585	0.4876
5.3300	-0.8088	0.5668	0.4877
5.3400	-0.8031	0.5750	0.4878
5.3500	-0.7973	0.5832	0.4879
5.3600	-0.7914	0.5913	0.4880
5.3700	-0.7855	0.5993	0.4881
5.3800	-0.7795	0.6073	0.4882
5.3900	-0.7733	0.6152	0.4883
5.4000	-0.7671	0.6230	0.4883
5.4100	-0.7609	0.6308	0.4884
5.4200	-0.7545	0.6386	0.4885
5.4300	-0.7481	0.6462	0.4886
5.4400	-0.7416	0.6538	0.4887
5.4500	-0.7350	0.6614	0.4888
5.4600	-0.7284	0.6688	0.4889
5.4700	-0.7217	0.6762	0.4890
5.4800	-0.7149	0.6836	0.4891
5.4900	-0.7080	0.6908	0.4892
5.5000	-0.7010	0.6980	0.4893
5.5100	-0.6940	0.7051	0.4895
5.5200	-0.6869	0.7122	0.4896
5.5300	-0.6798	0.7192	0.4897
5.5400	-0.6726	0.7261	0.4898
5.5500	-0.6653	0.7329	0.4899
5.5600	-0.6579	0.7397	0.4900
5.5700	-0.6505	0.7464	0.4901
5.5800	-0.6430	0.7530	0.4902
5.5900	-0.6354	0.7596	0.4903
5.6000	-0.6278	0.7660	0.4904
5.6100	-0.6201	0.7724	0.4906
5.6200	-0.6123	0.7787	0.4907
5.6300	-0.6045	0.7850	0.4908
5.6400	-0.5966	0.7911	0.4909
5.6500	-0.5887	0.7972	0.4910
5.6600	-0.5807	0.8032	0.4912
5.6700	-0.5726	0.8091	0.4913
5.6800	-0.5645	0.8149	0.4914
5.6900	-0.5563	0.8207	0.4915
5.7000	-0.5481	0.8264	0.4916
5.7100	-0.5398	0.8320	0.4918
5.7200	-0.5315	0.8375	0.4919
5.7300	-0.5231	0.8429	0.4920
5.7400	-0.5146	0.8482	0.4922
5.7500	-0.5061	0.8535	0.4923
5.7600	-0.4975	0.8587	0.4924
5.7700	-0.4889	0.8637	0.4925
5.7800	-0.4803	0.8687	0.4927
5.7900	-0.4715	0.8736	0.4928
5.8000	-0.4628	0.8785	0.4929
5.8100	-0.4540	0.8832	0.4931
5.8200	-0.4451	0.8878	0.4932
5.8300	-0.4362	0.8924	0.4933
5.8400	-0.4273	0.8969	0.4935
5.8500	-0.4183	0.9012	0.4936
5.8600	-0.4092	0.9055	0.4937
5.8700	-0.4002	0.9097	0.4939
5.8800	-0.3911	0.9138	0.4940
5.8900	-0.3819	0.9179	0.4942
5.9000	-0.3727	0.9218	0.4943
5.9100	-0.3635	0.9256	0.4944
5.9200	-0.3542	0.9293	0.4946
5.9300	-0.3449	0.9330	0.4947
5.9400	-0.3355	0.9365	0.4948
5.9500	-0.3261	0.9400	0.4950
5.9600	-0.3167	0.9434	0.4951
5.9700	-0.3073	0.9466	0.4953
5.9800	-0.2978	0.9498	0.4954
5.9900	-0.2883	0.9529	0.4956
6.0000	-0.2787	0.9559	0.4957
6.0100	-0.2692	0.9588	0.4958
6.0200	-0.2596	0.9616	0.4960
6.0300	-0.2499	0.9643	0.4961
6.0400	-0.2403	0.9669	0.4963
6.0500	-0.2306	0.9694	0.4964
6.0600	-0.2209	0.9718	0.4966
6.0700	-0.2112	0.9741	0.4967
6.0800	-0.2014	0.9763	0.4969
6.0900	-0.1916	0.9784	0.4970
6.1000	-0.1818	0.9804	0.4972
6.1100	-0.1720	0.9824	0.4973
6.1200	-0.1622	0.9842	0.4975
6.1300	-0.1523	0.9859	0.4976
6.1400	-0.1425	0.9875	0.4978
6.1500	-0.1326	0.9891	0.4979
6.1600	-0.1227	0.9905	0.4981
6.1700	-0.1128	0.9918	0.4982
6.1800	-0.1029	0.9930	0.4984
6.1900	-0.0929	0.9942	0.4985
6.2000	-0.0830	0.9952	0.4987
6.2100	-0.0730	0.9961	0.4988
6.2200	-0.0631	0.9970	0.4990
6.2300	-0.0531	0.9977	0.4991
6.2400	-0.0431	0.9983	0.4993
6.2500	-0.0331	0.9989	0.4994
6.2600	-0.0231	0.9993	0.4996
6.2700	-0.0131	0.9996	0.4997
6.2800	-0.0031	0.9998	0.4999
6.2900	0.0069	1.0000	0.5000
6.3000	0.0169	1.0000	0.5002
6.3100	0.0269	0.9999	0.5003
6.3200	0.0369	0.9998	0.5005
6.3300	0.0469	0.9995	0.5006
6.3400	0.0569	0.9991	0.5008
6.3500	0.0668	0.9987	0.5009
6.3600	0.0768	0.9981	0.5011
6.3700	0.0868	0.9974	0.5012
6.3800	0.0968	0.9967	0.5014
6.3900	0.1067	0.9958	0.5015
6.4000	0.1167	0.9948	0.5017
6.4100	0.1266	0.9938	0.5018
6.4200	0.1366	0.9926	0.5020
6.4300	0.1465	0.9913	0.5021
6.4400	0.1564	0.9900	0.5023
6.4500	0.1663	0.9885	0.5024
6.4600	0.1762	0.9869	0.5026
6.4700	0.1860	0.9853	0.5027
6.4800	0.1959	0.9835	0.5028
6.4900	0.2057	0.9817	0.5030
6.5000	0.2155	0.9797	0.5031
6.5100	0.2253	0.9777	0.5033
6.5200	0.2351	0.9755	0.5034
6.5300	0.2448	0.9733	0.5036
6.5400	0.2545	0.9709	0.5037
6.5500	0.2642	0.9685	0.5039
6.5600	0.2739	0.9659	0.5040
6.5700	0.2835	0.9633	0.5042
6.5800	0.2932	0.9606	0.5043
6.5900	0.3027	0.9577	0.5045
6.6000	0.3123	0.9548	0.5046
6.6100	0.3218	0.9518	0.5047
6.6200	0.3313	0.9487	0.5049
6.6300	0.3408	0.9455	0.5050
6.6400	0.3503	0.9422	0.5052
6.6500	0.3597	0.9388	0.5053
6.6600	0.3690	0.9353	0.5055
6.6700	0.3784	0.9317	0.5056
6.6800	0.3877	0.9280	0.5057
6.6900	0.3969	0.9242	0.5059
6.7000	0.4061	0.9204	0.5060
6.7100	0.4153	0.9164	0.5062
6.7200	0.4245	0.9124	0.5063
6.7300	0.4336	0.9082	0.5064
6.7400	0.4426	0.9040	0.5066
6.7500	0.4517	0.8997	0.5067
6.7600	0.4606	0.8953	0.5068
6.7700	0.4696	0.8908	0.5070
6.7800	0.4784	0.8862	0.5071
6.7900	0.4873	0.8815	0.5072
6.8000	0.4961	0.8767	0.5074
6.8100	0.5048	0.8719	0.5075
6.8200	0.5135	0.8669	0.5076
6.8300	0.5222	0.8619	0.5078
6.8400	0.5307	0.8568	0.5079
6.8500	0.5393	0.8516	0.5080
6.8600	0.5478	0.8463	0.5081
6.8700	0.5562	0.8409	0.5083
6.8800	0.5646	0.8355	0.5084
6.8900	0.5729	0.8299	0.5085
6.9000	0.5812	0.8243	0.5086
6.9100	0.5894	0.8186	0.5088
6.9200	0.5976	0.8128	0.5089
6.9300	0.6057	0.8070	0.5090
6.9400	0.6137	0.8010	0.5091
6.9500	0.6217	0.7950	0.5093
6.9600	0.6296	0.7889	0.5094
6.9700	0.6375	0.7827	0.5095
6.9800	0.6453	0.7764	0.5096
6.9900	0.6530	0.7701	0.5097
7.0000	0.6607	0.7637	0.5098
7.0100	0.6683	0.7572	0.5100
7.0200	0.6758	0.7506	0.5101
7.0300	0.6833	0.7440	0.5102
7.0400	0.6907	0.7373	0.5103
7.0500	0.6980	0.7305	0.5104
7.0600	0.7053	0.7236	0.5105
7.0700	0.7125	0.7167	0.5106
7.0800	0.7196	0.7096	0.5107
7.0900	0.7267	0.7026	0.5108
7.1000	0.7337	0.6954	0.5109
7.1100	0.7406	0.6882	0.5110
7.1200	0.7474	0.6809	0.5111
7.1300	0.7542	0.6735	0.5112
7.1400	0.7609	0.6661	0.5114
7.1500	0.7675	0.6586	0.5115
7.1600	0.7741	0.6511	0.5115
7.1700	0.7806	0.6434	0.5116
7.1800	0.7870	0.6358	0.5117
7.1900	0.7933	0.6280	0.5118
7.2000	0.7995	0.6202	0.5119
7.2100	0.8057	0.6123	0.5120
7.2200	0.8118	0.6044	0.5121
7.2300	0.8178	0.5964	0.5122
7.2400	0.8237	0.5883	0.5123
7.2500	0.8295	0.5802	0.5124
7.2600	0.8353	0.5720	0.5125
7.2700	0.8410	0.5638	0.5126
7.2800	0.8466	0.5555	0.5126
7.2900	0.8521	0.5472	0.5127
7.3000	0.8575	0.5388	0.5128
7.3100	0.8629	0.5303	0.5129
7.3200	0.8681	0.5218	0.5130
7.3300	0.8733	0.5133	0.5130
7.3400	0.8784	0.5047	0.5131
7.3500	0.8834	0.4960	0.5132
7.3600	0.8883	0.4873	0.5133
7.3700	0.8931	0.4785	0.5133
7.3800	0.8979	0.4697	0.5134
7.3900	0.9025	0.4609	0.5135
7.4000	0.9071	0.4520	0.5136
7.4100	0.9116	0.4430	0.5136
7.4200	0.9159	0.4341	0.5137
7.4300	0.9202	0.4250	0.5137
7.4400	0.9244	0.4160	0.5138
7.4500	0.9286	0.4068	0.5139
7.4600	0.9326	0.3977	0.5139
7.4700	0.9365	0.3885	0.5140
7.4800	0.9404	0.3793	0.5141
7.4900	0.9441	0.3700	0.5141
7.5000	0.9478	0.3607	0.5142
7.5100	0.9513	0.3513	0.5142
7.5200	0.9548	0.3420	0.5143
7.5300	0.9582	0.3325	0.5143
7.5400	0.9614	0.3231	0.5144
7.5500	0.9646	0.3136	0.5144
7.5600	0.9677	0.3041	0.5145
7.5700	0.9707	0.2946	0.5145
7.5800	0.9736	0.2850	0.5146
7.5900	0.9764	0.2754	0.5146
7.6000	0.9791	0.2658	0.5146
7.6100	0.9817	0.2561	0.5147
7.6200	0.9842	0.2464	0.5147
7.6300	0.9866	0.2367	0.5147
7.6400	0.9890	0.2270	0.5148
7.6500	0.9912	0.2172	0.5148
7.6600	0.9933	0.2075	0.5148
7.6700	0.9953	0.1977	0.5149
7.6800	0.9973	0.1879	0.5149
7.6900	0.9991	0.1780	0.5149
7.7000	1.0008	0.1682	0.5150
7.7100	1.0024	0.1583	0.5150
7.7200	1.0040	0.1484	0.5150
7.7300	1.0054	0.1385	0.5150
7.7400	1.0068	0.1286	0.5150
7.7500	1.0080	0.1187	0.5151
7.7600	1.0091	0.1088	0.5151
7.7700	1.0102	0.0988	0.5151
7.7800	1.0111	0.0889	0.5151
7.7900	1.0119	0.0789	0.5151
7.8000	1.0127	0.0689	0.5151
7.8100	1.0133	0.0590	0.5151
7.8200	1.0139	0.0490	0.5152
7.8300	1.0143	0.0390	0.5152
7.8400	1.0146	0.0290	0.5152
7.8500	1.0149	0.0190	0.5152
7.8600	1.0150	0.0090	0.5152
7.8700	1.0151	-0.0010	0.5152
7.8800	1.0150	-0.0110	0.5152
7.8900	1.0148	-0.0210	0.5152
7.9000	1.0146	-0.0310	0.5152
7.9100	1.0142	-0.0410	0.5152
7.9200	1.0138	-0.0510	0.5152
7.9300	1.0132	-0.0610	0.5151
7.9400	1.0125	-0.0710	0.5151
7.9500	1.0118	-0.0809	0.5151
7.9600	1.0109	-0.0909	0.5151
7.9700	1.0100	-0.1008	0.5151
7.9800	1.0089	-0.1108	0.5151
7.9900	1.0077	-0.1207	0.5151
8.0000	1.0065	-0.1306	0.5150
8.0100	1.0051	-0.1405	0.5150
8.0200	1.0037	-0.1504	0.5150
8.0300	1.0021	-0.1603	0.5150
8.0400	1.0005	-0.1702	0.5150
8.0500	0.9987	-0.1800	0.5149
8.0600	0.9969	-0.1899	0.5149
8.0700	0.9949	-0.1997	0.5149
8.0800	0.9929	-0.2094	0.5148
8.0900	0.9907	-0.2192	0.5148
8.1000	0.9885	-0.2290	0.5148
8.1100	0.9862	-0.2387	0.5147
8.1200	0.9837	-0.2484	0.5147
8.1300	0.9812	-0.2581	0.5147
8.1400	0.9786	-0.2677	0.5146
8.1500	0.9758	-0.2773	0.5146
8.1600	0.9730	-0.2869	0.5145
8.1700	0.9701	-0.2965	0.5145
8.1800	0.9671	-0.3060	0.5145
8.1900	0.9640	-0.3155	0.5144
8.2000	0.9608	-0.3250	0.5144
8.2100	0.9575	-0.3344	0.5143
8.2200	0.9541	-0.3438	0.5143
8.2300	0.9506	-0.3532	0.5142
8.2400	0.9470	-0.3626	0.5142
8.2500	0.9434	-0.3719	0.5141
8.2600	0.9396	-0.3811	0.5140
8.2700	0.9357	-0.3903	0.5140
8.2800	0.9318	-0.3995	0.5139
8.2900	0.9277	-0.4087	0.5139
8.3000	0.9236	-0.4178	0.5138
8.3100	0.9194	-0.4269	0.5137
8.3200	0.9151	-0.4359	0.5137
8.3300	0.9107	-0.4449	0.5136
8.3400	0.9062	-0.4538	0.5135
8.3500	0.9016	-0.4627	0.5135
8.3600	0.8969	-0.4715	0.5134
8.3700	0.8922	-0.4803	0.5133
8.3800	0.8873	-0.4891	0.5133
8.3900	0.8824	-0.4978	0.5132
8.4000	0.8774	-0.5064	0.5131
8.4100	0.8723	-0.5150	0.5130
8.4200	0.8671	-0.5235	0.5129
8.4300	0.8618	-0.5320	0.5129
8.4400	0.8564	-0.5405	0.5128
8.4500	0.8510	-0.5489	0.5127
8.4600	0.8454	-0.5572	0.5126
8.4700	0.8398	-0.5655	0.5125
8.4800	0.8341	-0.5737	0.5125
8.4900	0.8284	-0.5819	0.5124
8.5000	0.8225	-0.5900	0.5123
8.5100	0.8166	-0.5980	0.5122
8.5200	0.8105	-0.6060	0.5121
8.5300	0.8044	-0.6139	0.5120
8.5400	0.7983	-0.6218	0.5119
8.5500	0.7920	-0.6296	0.5118
8.5600	0.7857	-0.6373	0.5117
8.5700	0.7793	-0.6450	0.5116
8.5800	0.7728	-0.6526	0.5115
8.5900	0.7662	-0.6601	0.5114
8.6000	0.7596	-0.6676	0.5113
8.6100	0.7529	-0.6750	0.5112
8.6200	0.7461	-0.6824	0.5111
8.6300	0.7392	-0.6897	0.5110
8.6400	0.7323	-0.6969	0.5109
8.6500	0.7253	-0.7040	0.5108
8.6600	0.7182	-0.7111	0.5107
8.6700	0.7110	-0.7181	0.5106
8.6800	0.7038	-0.7250	0.5105
8.6900	0.6965	-0.7318	0.5104
8.7000	0.6892	-0.7386	0.5103
8.7100	0.6818	-0.7453	0.5102
8.7200	0.6743	-0.7519	0.5100
8.7300	0.6667	-0.7585	0.5099
8.7400	0.6591	-0.7650	0.5098
8.7500	0.6514	-0.7714	0.5097
8.7600	0.6437	-0.7777	0.5096
8.7700	0.6359	-0.7840	0.5095
8.7800	0.6280	-0.7901	0.5093
8.7900	0.6201	-0.7962	0.5092
8.8000	0.6121	-0.8022	0.5091
8.8100	0.6040	-0.8082	0.5090
8.8200	0.5959	-0.8140	0.5089
8.8300	0.5878	-0.8198	0.5087
8.8400	0.5795	-0.8255	0.5086
8.8500	0.5712	-0.8311	0.5085
8.8600	0.5629	-0.8366	0.5084
8.8700	0.5545	-0.8420	0.5082
8.8800	0.5461	-0.8474	0.5081
8.8900	0.5376	-0.8526	0.5080
8.9000	0.5290	-0.8578	0.5079
8.9100	0.5204	-0.8629	0.5077
8.9200	0.5118	-0.8679	0.5076
8.9300	0.5031	-0.8728	0.5075
8.9400	0.4943	-0.8777	0.5073
8.9500	0.4855	-0.8824	0.5072
8.9600	0.4767	-0.8871	0.5071
8.9700	0.4678	-0.8917	0.5069
8.9800	0.4588	-0.8961	0.5068
8.9900	0.4498	-0.9005	0.5067
9.0000	0.4408	-0.9048	0.5065
9.0100	0.4317	-0.9091	0.5064
9.0200	0.4226	-0.9132	0.5063
9.0300	0.4135	-0.9172	0.5061
9.0400	0.4043	-0.9211	0.5060
9.0500	0.3951	-0.9250	0.5058
9.0600	0.3858	-0.9287	0.5057
9.0700	0.3765	-0.9324	0.5056
9.0800	0.3671	-0.9360	0.5054
9.0900	0.3578	-0.9394	0.5053
9.1000	0.3484	-0.9428	0.5051
9.1100	0.3389	-0.9461	0.5050
9.1200	0.3294	-0.9493	0.5048
9.1300	0.3199	-0.9524	0.5047
9.1400	0.3104	-0.9554	0.5046
9.1500	0.3008	-0.9583	0.5044
9.1600	0.2912	-0.9611	0.5043
9.1700	0.2816	-0.9638	0.5041
9.1800	0.2719	-0.9664	0.5040
9.1900	0.2623	-0.9690	0.5038
9.2000	0.2526	-0.9714	0.5037
9.2100	0.2428	-0.9737	0.5035
9.2200	0.2331	-0.9759	0.5034
9.2300	0.2233	-0.9781	0.5032
9.2400	0.2135	-0.9801	0.5031
9.2500	0.2037	-0.9820	0.5030
9.2600	0.1939	-0.9839	0.5028
9.2700	0.1840	-0.9856	0.5027
9.2800	0.1742	-0.9873	0.5025
9.2900	0.1643	-0.9888	0.5024
9.3000	0.1544	-0.9902	0.5022
9.3100	0.1445	-0.9916	0.5021
9.3200	0.1346	-0.9928	0.5019
9.3300	0.1246	-0.9940	0.5018
9.3400	0.1147	-0.9950	0.5016
9.3500	0.1047	-0.9960	0.5015
9.3600	0.0948	-0.9968	0.5013
9.3700	0.0848	-0.9976	0.5012
9.3800	0.0748	-0.9982	0.5010
9.3900	0.0648	-0.9988	0.5009
9.4000	0.0548	-0.9992	0.5007
9.4100	0.0449	-0.9996	0.5006
9.4200	0.0349	-0.9998	0.5004
9.4300	0.0249	-0.9999	0.5003
9.4400	0.0149	-1.0000	0.5001
9.4500	0.0049	-0.9999	0.5000
9.4600	-0.0051	-0.9998	0.4998
9.4700	-0.0151	-0.9995	0.4997
9.4800	-0.0251	-0.9992	0.4995
9.4900	-0.0351	-0.9987	0.4994
9.5000	-0.0451	-0.9982	0.4992
9.5100	-0.0551	-0.9975	0.4991
9.5200	-0.0651	-0.9968	0.4989
9.5300	-0.0750	-0.9959	0.4988
9.5400	-0.0850	-0.9950	0.4986
9.5500	-0.0949	-0.9939	0.4985
9.5600	-0.1049	-0.9928	0.4983
9.5700	-0.1148	-0.9915	0.4982
9.5800	-0.1247	-0.9902	0.4980
9.5900	-0.1346	-0.9887	0.4979
9.6000	-0.1445	-0.9872	0.4977
9.6100	-0.1543	-0.9855	0.4976
9.6200	-0.1642	-0.9838	0.4974
9.6300	-0.1740	-0.9820	0.4973
9.6400	-0.1838	-0.9800	0.4971
9.6500	-0.1936	-0.9780	0.4970
9.6600	-0.2034	-0.9758	0.4968
9.6700	-0.2131	-0.9736	0.4967
9.6800	-0.2228	-0.9713	0.4965
9.6900	-0.2325	-0.9689	0.4964
9.7000	-0.2422	-0.9663	0.4962
9.7100	-0.2519	-0.9637	0.4961
9.7200	-0.2615	-0.9610	0.4959
9.7300	-0.2711	-0.9582	0.4958
9.7400	-0.2807	-0.9553	0.4956
9.7500	-0.2902	-0.9523	0.4955
9.7600	-0.2997	-0.9492	0.4954
9.7700	-0.3092	-0.9460	0.4952
9.7800	-0.3186	-0.9427	0.4951
9.7900	-0.3280	-0.9393	0.4949
9.8000	-0.3374	-0.9358	0.4948
9.8100	-0.3467	-0.9322	0.4947
9.8200	-0.3560	-0.9286	0.4945
9.8300	-0.3653	-0.9248	0.4944
9.8400	-0.3745	-0.9210	0.4942
9.8500	-0.3837	-0.9170	0.4941
9.8600	-0.3929	-0.9130	0.4940
9.8700	-0.4020	-0.9089	0.4938
9.8800	-0.4111	-0.9047	0.4937
9.8900	-0.4201	-0.9003	0.4935
9.9000	-0.4291	-0.8959	0.4934
9.9100	-0.4380	-0.8915	0.4933
9.9200	-0.4469	-0.8869	0.4931
9.9300	-0.4557	-0.8822	0.4930
9.9400	-0.4645	-0.8775	0.4929
9.9500	-0.4733	-0.8726	0.4927
9.9600	-0.4820	-0.8677	0.4926
9.9700	-0.4906	-0.8627	0.4925
9.9800	-0.4992	-0.8576	0.4924
9.9900	-0.5078	-0.8524	0.4922
10.0000	-0.5163	-0.8471	0.4921
10.0100	-0.5247	-0.8418	0.4920
10.0200	-0.5331	-0.8363	0.4918
10.0300	-0.5415	-0.8308	0.4917
10.0400	-0.5497	-0.8252	0.4916
10.0500	-0.5580	-0.8195	0.4915
10.0600	-0.5661	-0.8137	0.4913
10.0700	-0.5742	-0.8079	0.4912
10.0800	-0.5823	-0.8020	0.4911
10.0900	-0.5903	-0.7959	0.4910
10.1000	-0.5982	-0.7899	0.4909
10.1100	-0.6061	-0.7837	0.4907
10.1200	-0.6139	-0.7774	0.4906
10.1300	-0.6216	-0.7711	0.4905
10.1400	-0.6293	-0.7647	0.4904
10.1500	-0.6369	-0.7582	0.4903
10.1600	-0.6445	-0.7517	0.4902
10.1700	-0.6519	-0.7450	0.4900
10.1800	-0.6594	-0.7383	0.4899
10.1900	-0.6667	-0.7315	0.4898
10.2000	-0.6740	-0.7247	0.4897
10.2100	-0.6812	-0.7178	0.4896
10.2200	-0.6883	-0.7108	0.4895
10.2300	-0.6954	-0.7037	0.4894
10.2400	-0.7024	-0.6965	0.4893
10.2500	-0.7094	-0.6893	0.4892
10.2600	-0.7162	-0.6821	0.4891
10.2700	-0.7230	-0.6747	0.4890
10.2800	-0.7297	-0.6673	0.4889
10.2900	-0.7363	-0.6598	0.4888
10.3000	-0.7429	-0.6523	0.4887
10.3100	-0.7494	-0.6447	0.4886
10.3200	-0.7558	-0.6370	0.4885
10.3300	-0.7621	-0.6292	0.4884