# Time	Position	Velocity	Total Energy
48.0000	-15386878263120.0000	-26650854921601.0000	473512045368149477697781760.0000
44.0000	1104728155436.0000	1913445293767.0000	2440848594826053931761664.0000
40.0000	-79315912984.0000	-137379191137.0000	12582028104970918690816.0000
36.0000	5694626340.0000	9863382151.0000	64857538304443588608.0000
32.0000	-408855776.0000	-708158977.0000	334326091137124352.0000
28.0000	29354524.0000	50843527.0000	1723376158533152.5000
24.0000	-2107560.0000	-3650401.0000	8883618307200.5000
20.0000	151316.0000	262087.0000	45793063712.5000
16.0000	-10864.0000	-18817.0000	236052992.5000
12.0000	780.0000	1351.0000	1216800.5000
8.0000	-56.0000	-97.0000	6272.5000
4.0000	4.0000	7.0000	32.5000
