# Time	Position	Velocity	Total Energy
0.0000	0.0000	4.0000	8.0000
4.0000	16.0000	-28.0000	520.0000
8.0000	-224.0000	388.0000	100360.0000
12.0000	3120.0000	-5404.0000	19468808.0000
16.0000	-43456.0000	75268.0000	3776847880.0000
20.0000	605264.0000	-1048348.0000	732689019400.0000
24.0000	-8430240.0000	14601604.0000	142137892915208.0000
28.0000	117418096.0000	-203374108.0000	27574018536530440.0000
32.0000	-1635423104.0000	2832635908.0000	5349217458193989632.0000
36.0000	22778505360.0000	-39453528604.0000	1037720612871097417728.0000
40.0000	-317263651936.0000	549516764548.0000	201312449679534699053056.0000
44.0000	4418912621744.0000	-7653781175068.0000	39053577517216862908186624.0000
48.0000	-61547513052480.0000	106603419686404.0000	7576192725890391643164508160.0000
52.0000	857246270112976.0000	-1484794094434588.0000	1469742335245218681741146849280.0000
56.0000	-11939900268529184.0000	20680513902397828.0000	285122436844846557411081321447424.0000
60.0000	166301357489295616.0000	-288042400539135040.0000	55312283005565000238463933162192896.0000
64.0000	-2316279104581609472.0000	4011913093645492736.0000	10730297780642765996301294041437306880.0000
68.0000	32261606106653237248.0000	-55878740910497767424.0000	2081622457161691094563228748993517322240.0000
72.0000	-449346206388563738624.0000	778290459653323227136.0000	403824026391587419879529320196449654276096.0000
76.0000	6258585283333238816768.0000	-10840187694236026535936.0000	78339779497510796307871817889023112010268672.0000
80.0000	-87170847760276781006848.0000	150984337259651066232832.0000	15197513398490703663443221235809376381888888832.0000
84.0000	1214133283360541681647616.0000	-2102940533940878718271488.0000	2948239259527698742360727754684334562761437609984.0000
88.0000	-16910695119287305570877440.0000	29290183137912649328623616.0000	571943218834975048165540421300037752351936045121536.0000
92.0000	235535598386661749195538432.0000	-407959623396836233625731072.0000	110954036214725623361711880319452011754872250086457344.0000
96.0000	-3280587682293977041432739840.0000	5682144544417794282129195008.0000	21524511082437935173211728727398254197672650780394389504.0000
