# Time	Position	Velocity	Total Energy
0.0000	0.0000	8.0000	32.0000
4.0000	32.0000	-56.0000	2080.0000
8.0000	-448.0000	776.0000	401440.0000
12.0000	6240.0000	-10808.0000	77875232.0000
16.0000	-86912.0000	150536.0000	15107391520.0000
20.0000	1210528.0000	-2096696.0000	2930756077600.0000
24.0000	-16860480.0000	29203208.0000	568551571660832.0000
28.0000	234836192.0000	-406748216.0000	110296074146121760.0000
32.0000	-3270846208.0000	5665271816.0000	21396869832775958528.0000
36.0000	45557010720.0000	-78907057208.0000	4150882451484389670912.0000
40.0000	-634527303872.0000	1099033529096.0000	805249798718138796212224.0000
44.0000	8837825243488.0000	-15307562350136.0000	156214310068867451632746496.0000
48.0000	-123095026104960.0000	213206839372808.0000	30304770903561566572658032640.0000
52.0000	1714492540225952.0000	-2969588188869176.0000	5878969340980874726964587397120.0000
56.0000	-23879800537058368.0000	41361027804795656.0000	1140489747379386229644325285789696.0000
60.0000	332602714978591232.0000	-576084801078270080.0000	221249132022260000953855732648771584.0000
64.0000	-4632558209163218944.0000	8023826187290985472.0000	42921191122571063985205176165749227520.0000
68.0000	64523212213306474496.0000	-111757481820995534848.0000	8326489828646764378252914995974069288960.0000
72.0000	-898692412777127477248.0000	1556580919306646454272.0000	1615296105566349679518117280785798617104384.0000
76.0000	12517170566666477633536.0000	-21680375388472053071872.0000	313359117990043185231487271556092448041074688.0000
80.0000	-174341695520553562013696.0000	301968674519302132465664.0000	60790053593962814653772884943237505527555555328.0000
84.0000	2428266566721083363295232.0000	-4205881067881757436542976.0000	11792957038110794969442911018737338251045750439936.0000
88.0000	-33821390238574611141754880.0000	58580366275825298657247232.0000	2287772875339900192662161685200151009407744180486144.0000
92.0000	471071196773323498391076864.0000	-815919246793672467251462144.0000	443816144858902493446847521277808047019489000345829376.0000
96.0000	-6561175364587954082865479680.0000	11364289088835588564258390016.0000	86098044329751740692846914909593016790690603121577558016.0000
